# Selection     : all 
# Volume        : 1.45160395e-05
# Time          	maxMag(U)
0               	0.00000000e+00
1               	1.63340190e+01
2               	1.41289649e+01
3               	1.31550878e+01
4               	1.25770403e+01
5               	1.21397648e+01
6               	1.18333917e+01
7               	1.16046378e+01
8               	1.14481004e+01
9               	1.13218238e+01
10              	1.11993372e+01
11              	1.11577353e+01
12              	1.13002532e+01
13              	1.14006078e+01
14              	1.14711660e+01
15              	1.15119078e+01
16              	1.15197217e+01
17              	1.15207356e+01
18              	1.15293432e+01
19              	1.15267705e+01
20              	1.15143761e+01
21              	1.14949366e+01
22              	1.14720227e+01
23              	1.14439918e+01
24              	1.14231722e+01
25              	1.14025714e+01
26              	1.13771736e+01
27              	1.13515303e+01
28              	1.13281352e+01
29              	1.13019871e+01
30              	1.12773273e+01
31              	1.12522510e+01
32              	1.12290973e+01
33              	1.12064246e+01
34              	1.11845901e+01
35              	1.11657957e+01
36              	1.11461467e+01
37              	1.11259404e+01
38              	1.11088435e+01
39              	1.10920025e+01
40              	1.10755727e+01
41              	1.10605092e+01
42              	1.10447340e+01
43              	1.10292009e+01
44              	1.10148535e+01
45              	1.10004092e+01
46              	1.09866434e+01
47              	1.09724493e+01
48              	1.09583621e+01
49              	1.09464404e+01
50              	1.09332415e+01
51              	1.09201858e+01
52              	1.09078858e+01
53              	1.08957524e+01
54              	1.08832093e+01
55              	1.08712876e+01
56              	1.08598008e+01
57              	1.08482868e+01
58              	1.08382268e+01
59              	1.08284180e+01
60              	1.08183653e+01
61              	1.08083673e+01
62              	1.07980815e+01
63              	1.07873598e+01
64              	1.07768763e+01
65              	1.07658054e+01
66              	1.07541380e+01
67              	1.07415977e+01
68              	1.07291353e+01
69              	1.07155946e+01
70              	1.07013106e+01
71              	1.06875560e+01
72              	1.06739310e+01
73              	1.06590448e+01
74              	1.06436607e+01
75              	1.06272280e+01
76              	1.06097853e+01
77              	1.05911921e+01
78              	1.05715843e+01
79              	1.05508993e+01
80              	1.05295945e+01
81              	1.05084651e+01
82              	1.04862013e+01
83              	1.04631380e+01
84              	1.04382277e+01
85              	1.04120834e+01
86              	1.03842217e+01
87              	1.03554162e+01
88              	1.03244197e+01
89              	1.02922175e+01
90              	1.02605376e+01
91              	1.02278928e+01
92              	1.01936210e+01
93              	1.01795920e+01
94              	1.01797008e+01
95              	1.01797836e+01
96              	1.01798753e+01
97              	1.01799807e+01
98              	1.01800224e+01
99              	1.01800038e+01
100             	1.01798861e+01
101             	1.01798812e+01
102             	1.01799680e+01
103             	1.01800274e+01
104             	1.01801636e+01
105             	1.01801402e+01
106             	1.01802640e+01
107             	1.01802564e+01
108             	1.01802258e+01
109             	1.01802273e+01
110             	1.01802821e+01
111             	1.01803626e+01
112             	1.01804453e+01
113             	1.01804697e+01
114             	1.01804478e+01
115             	1.01804535e+01
116             	1.01805090e+01
117             	1.01805878e+01
118             	1.01806867e+01
119             	1.01807504e+01
120             	1.01807526e+01
121             	1.01806503e+01
122             	1.01806313e+01
123             	1.01805772e+01
124             	1.01805818e+01
125             	1.01805996e+01
126             	1.01805576e+01
127             	1.01804883e+01
128             	1.01804306e+01
129             	1.01803917e+01
130             	1.01803643e+01
131             	1.01803456e+01
132             	1.01803303e+01
133             	1.01803018e+01
134             	1.01802382e+01
135             	1.01800772e+01
136             	1.01799167e+01
137             	1.01797356e+01
138             	1.01795489e+01
139             	1.01793686e+01
140             	1.01792225e+01
141             	1.01791783e+01
142             	1.01791434e+01
143             	1.01791155e+01
144             	1.01790319e+01
145             	1.01789978e+01
146             	1.01789857e+01
147             	1.01789437e+01
148             	1.01788741e+01
149             	1.01787782e+01
150             	1.01786997e+01
151             	1.01786134e+01
152             	1.01785310e+01
153             	1.01784449e+01
154             	1.01784395e+01
155             	1.01784286e+01
156             	1.01784778e+01
157             	1.01784987e+01
158             	1.01785828e+01
159             	1.01786924e+01
160             	1.01787687e+01
161             	1.01788261e+01
162             	1.01789202e+01
163             	1.01790440e+01
164             	1.01791578e+01
165             	1.01792942e+01
166             	1.01794712e+01
167             	1.01797613e+01
168             	1.01799386e+01
169             	1.01800669e+01
170             	1.01802302e+01
171             	1.01804310e+01
172             	1.01805849e+01
173             	1.01807663e+01
174             	1.01809281e+01
175             	1.01810742e+01
176             	1.01811999e+01
177             	1.01813300e+01
178             	1.01814520e+01
179             	1.01815440e+01
180             	1.01816365e+01
181             	1.01817124e+01
182             	1.01818250e+01
183             	1.01819726e+01
184             	1.01821104e+01
185             	1.01822573e+01
186             	1.01824354e+01
187             	1.01826162e+01
188             	1.01827912e+01
189             	1.01830055e+01
190             	1.01831685e+01
191             	1.01832827e+01
192             	1.01833673e+01
193             	1.01834307e+01
194             	1.01834810e+01
195             	1.01834678e+01
196             	1.01834494e+01
197             	1.01834955e+01
198             	1.01835051e+01
199             	1.01835202e+01
200             	1.01835145e+01
201             	1.01835368e+01
202             	1.01835531e+01
203             	1.01835926e+01
204             	1.01836207e+01
205             	1.01836653e+01
206             	1.01836955e+01
207             	1.01837227e+01
208             	1.01837420e+01
209             	1.01837551e+01
210             	1.01837159e+01
211             	1.01836695e+01
212             	1.01836321e+01
213             	1.01836052e+01
214             	1.01835810e+01
215             	1.01835601e+01
216             	1.01835638e+01
217             	1.01835621e+01
218             	1.01835760e+01
219             	1.01836062e+01
220             	1.01836263e+01
221             	1.01836580e+01
222             	1.01836751e+01
223             	1.01837013e+01
224             	1.01837354e+01
225             	1.01837775e+01
226             	1.01838112e+01
227             	1.01838386e+01
228             	1.01838673e+01
229             	1.01838968e+01
230             	1.01839210e+01
231             	1.01839443e+01
232             	1.01839839e+01
233             	1.01840219e+01
234             	1.01840520e+01
235             	1.01840850e+01
236             	1.01841222e+01
237             	1.01841571e+01
238             	1.01842016e+01
239             	1.01842505e+01
240             	1.01842894e+01
241             	1.01843273e+01
242             	1.01843726e+01
243             	1.01844183e+01
244             	1.01844579e+01
245             	1.01844969e+01
246             	1.01845366e+01
247             	1.01845626e+01
248             	1.01845901e+01
249             	1.01846206e+01
250             	1.01846509e+01
251             	1.01846839e+01
252             	1.01847283e+01
253             	1.01847666e+01
254             	1.01847985e+01
255             	1.01848355e+01
256             	1.01848641e+01
257             	1.01848996e+01
258             	1.01849287e+01
259             	1.01849519e+01
260             	1.01849764e+01
261             	1.01850060e+01
262             	1.01850313e+01
