# vtk DataFile Version 2.0
tracks
ASCII
DATASET POLYDATA
POINTS 12030 float
-0.0206 0.000999959 1e-05 -0.02058 0.000999961 1e-05 -0.02056 0.000999967 1e-05 -0.02054 0.000999975
1e-05 -0.02052 0.000999986 1e-05 -0.0205 0.001 1e-05 -0.0202034 0.0010002 1e-05
-0.0199069 0.00100071 1e-05 -0.0196103 0.00100149 1e-05 -0.0193138 0.00100255 1e-05 -0.0190172
0.00100389 1e-05 -0.0187133 0.00100545 1e-05 -0.0184094 0.001007 1e-05 -0.0181054 0.00100856
1e-05 -0.0178015 0.00101011 1e-05 -0.0174976 0.00101166 1e-05 -0.0172058 0.00101315 1e-05
-0.016914 0.00101462 1e-05 -0.0166223 0.00101608 1e-05 -0.0163305 0.00101753 1e-05 -0.0160387
0.00101897 1e-05 -0.0157586 0.00102035 1e-05 -0.0154785 0.00102174 1e-05 -0.0151983 0.00102312
1e-05 -0.0149182 0.0010245 1e-05 -0.0146381 0.00102589 1e-05 -0.0146006 0.00102608 1e-05
-0.0145631 0.00102626 1e-05 -0.0145256 0.00102645 1e-05 -0.0144881 0.00102663 1e-05 -0.0144506
0.00102682 1e-05 -0.0142192 0.00102797 1e-05 -0.0139877 0.00102912 1e-05 -0.0137563 0.00103027
1e-05 -0.0135248 0.00103142 1e-05 -0.0132934 0.00103258 1e-05 -0.0130352 0.00103387 1e-05
-0.012777 0.00103516 1e-05 -0.0125189 0.00103644 1e-05 -0.0122607 0.00103773 1e-05 -0.0120025
0.00103902 1e-05 -0.0117546 0.00104025 1e-05 -0.0115068 0.00104148 1e-05 -0.0112589 0.00104271
1e-05 -0.0110111 0.00104394 1e-05 -0.0107632 0.00104516 1e-05 -0.0105252 0.00104634 1e-05
-0.0102873 0.00104751 1e-05 -0.0100493 0.00104868 1e-05 -0.00981134 0.00104984 1e-05 -0.00957337
0.00105101 1e-05 -0.00934491 0.00105212 1e-05 -0.00911645 0.00105323 1e-05 -0.008888 0.00105434
1e-05 -0.00865954 0.00105544 1e-05 -0.00843108 0.00105654 1e-05 -0.00821175 0.00105759 1e-05
-0.00799242 0.00105864 1e-05 -0.00777309 0.00105969 1e-05 -0.00755376 0.00106074 1e-05 -0.00733443
0.00106178 1e-05 -0.00712386 0.00106277 1e-05 -0.0069133 0.00106377 1e-05 -0.00670273 0.00106476
1e-05 -0.00649217 0.00106574 1e-05 -0.0062816 0.00106673 1e-05 -0.00607945 0.00106767 1e-05
-0.00587729 0.00106861 1e-05 -0.00567514 0.00106954 1e-05 -0.00547298 0.00107047 1e-05 -0.00527083
0.0010714 1e-05 -0.00507675 0.00107229 1e-05 -0.00488267 0.00107317 1e-05 -0.0046886 0.00107406
1e-05 -0.00449452 0.00107494 1e-05 -0.00430044 0.00107581 1e-05 -0.00411412 0.00107665 1e-05
-0.0039278 0.00107748 1e-05 -0.00374147 0.00107832 1e-05 -0.00355515 0.00107915 1e-05 -0.00336883
0.00107997 1e-05 -0.00318995 0.00108076 1e-05 -0.00301107 0.00108155 1e-05 -0.00283219 0.00108233
1e-05 -0.00265331 0.00108312 1e-05 -0.00247443 0.0010839 1e-05 -0.0023027 0.00108464 1e-05
-0.00213097 0.00108538 1e-05 -0.00195923 0.00108612 1e-05 -0.0017875 0.00108686 1e-05 -0.00161577
0.0010876 1e-05 -0.0014509 0.0010883 1e-05 -0.00128603 0.001089 1e-05 -0.00112116 0.0010897
1e-05 -0.000956288 0.00109039 1e-05 -0.000791418 0.00109109 1e-05 -0.000633134 0.00109175 1e-05
-0.000474851 0.00109241 1e-05 -0.000316567 0.00109306 1e-05 -0.000158284 0.00109371 1e-05 0
0.00109436 1e-05 0.000105677 0.00109478 1e-05 0.000211355 0.00109521 1e-05 0.000317032 0.00109563
1e-05 0.00042271 0.00109605 1e-05 0.000528387 0.00109647 1e-05 0.000634886 0.0010969 1e-05
0.000741384 0.00109732 1e-05 0.000847883 0.00109776 1e-05 0.000954381 0.0010982 1e-05 0.00106088
0.00109864 1e-05 0.00116821 0.0010991 1e-05 0.00127554 0.00109956 1e-05 0.00138286 0.00110002
1e-05 0.00149019 0.0011005 1e-05 0.00159752 0.00110098 1e-05 0.00170568 0.00110147 1e-05
0.00181384 0.00110197 1e-05 0.00192201 0.00110246 1e-05 0.00203017 0.00110296 1e-05 0.00213833
0.00110347 1e-05 0.00224733 0.00110398 1e-05 0.00235633 0.00110449 1e-05 0.00246534 0.00110499
1e-05 0.00257434 0.0011055 1e-05 0.00268334 0.001106 1e-05 0.00279319 0.00110651 1e-05
0.00290304 0.00110701 1e-05 0.00301289 0.00110751 1e-05 0.00312274 0.00110799 1e-05 0.00323259
0.00110847 1e-05 0.00334329 0.00110895 1e-05 0.003454 0.00110942 1e-05 0.0035647 0.00110988
1e-05 0.00367541 0.00111033 1e-05 0.00378611 0.00111077 1e-05 0.00389767 0.0011112 1e-05
0.00400924 0.00111162 1e-05 0.0041208 0.00111203 1e-05 0.00423237 0.00111243 1e-05 0.00434393
0.00111282 1e-05 0.00445636 0.0011132 1e-05 0.00456879 0.00111357 1e-05 0.00468123 0.00111394
1e-05 0.00479366 0.00111429 1e-05 0.00490609 0.00111463 1e-05 0.0050194 0.00111496 1e-05
0.0051327 0.00111529 1e-05 0.00524601 0.00111561 1e-05 0.00535931 0.00111591 1e-05 0.00547262
0.00111621 1e-05 0.00558681 0.0011165 1e-05 0.005701 0.00111678 1e-05 0.00581518 0.00111706
1e-05 0.00592937 0.00111732 1e-05 0.00604356 0.00111758 1e-05 0.00615863 0.00111783 1e-05
0.00627371 0.00111807 1e-05 0.00638878 0.0011183 1e-05 0.00650386 0.00111853 1e-05 0.00661893
0.00111875 1e-05 0.0067349 0.00111895 1e-05 0.00685087 0.00111916 1e-05 0.00696684 0.00111935
1e-05 0.00708281 0.00111954 1e-05 0.00719878 0.00111971 1e-05 0.00731565 0.00111988 1e-05
0.00743252 0.00112004 1e-05 0.00754939 0.0011202 1e-05 0.00766626 0.00112034 1e-05 0.00778313
0.00112048 1e-05 0.00787015 0.00112058 1e-05 0.00795718 0.00112067 1e-05 0.0080442 0.00112076
1e-05 0.00813123 0.00112084 1e-05 0.00821425 0.00112091 1e-05 0.00824581 0.00112094 1e-05
0.00827736 0.00112097 1e-05 0.00830892 0.00112099 1e-05 0.00834047 0.00112102 1e-05 0.00837203
0.00112104 1e-05 0.00849073 0.00112113 1e-05 0.00860942 0.00112122 1e-05 0.00872812 0.00112129
1e-05 0.00884681 0.00112136 1e-05 0.00896551 0.00112141 1e-05 0.00908513 0.00112146 1e-05
0.00920475 0.0011215 1e-05 0.00932436 0.00112153 1e-05 0.00944398 0.00112156 1e-05 0.0095636
0.00112158 1e-05 0.00968414 0.00112158 1e-05 0.00980468 0.00112158 1e-05 0.00992522 0.00112157
1e-05 0.0100458 0.00112155 1e-05 0.0101663 0.00112153 1e-05 0.0102878 0.00112149 1e-05
0.0104093 0.00112144 1e-05 0.0105308 0.00112139 1e-05 0.0106523 0.00112133 1e-05 0.0107738
0.00112127 1e-05 0.0108962 0.00112118 1e-05 0.0110186 0.00112109 1e-05 0.0111411 0.001121
1e-05 0.0112635 0.0011209 1e-05 0.0113859 0.00112079 1e-05 0.0115093 0.00112065 1e-05
0.0116327 0.00112052 1e-05 0.011756 0.00112038 1e-05 0.0118794 0.00112023 1e-05 0.0120028
0.00112008 1e-05 0.0121271 0.0011199 1e-05 0.0122515 0.00111972 1e-05 0.0123758 0.00111954
1e-05 0.0125002 0.00111934 1e-05 0.0126245 0.00111914 1e-05 0.0127498 0.00111892 1e-05
0.0128751 0.00111869 1e-05 0.0130005 0.00111846 1e-05 0.0131258 0.00111822 1e-05 0.0132511
0.00111797 1e-05 0.0133774 0.0011177 1e-05 0.0135037 0.00111743 1e-05 0.0136299 0.00111715
1e-05 0.0137562 0.00111686 1e-05 0.0138825 0.00111657 1e-05 0.0140098 0.00111624 1e-05
0.014137 0.00111593 1e-05 0.0142643 0.0011156 1e-05 0.0143915 0.00111526 1e-05 0.0145188
0.00111492 1e-05 0.0146471 0.00111455 1e-05 0.0147753 0.00111418 1e-05 0.0149036 0.0011138
1e-05 0.0150318 0.00111341 1e-05 0.0151601 0.00111302 1e-05 0.0152893 0.0011126 1e-05
0.0154186 0.00111218 1e-05 0.0155478 0.00111175 1e-05 0.0156771 0.00111131 1e-05 0.0158063
0.00111087 1e-05 0.0159366 0.00111039 1e-05 0.0160668 0.00110992 1e-05 0.0161971 0.00110944
1e-05 0.0163273 0.00110896 1e-05 0.0164576 0.00110846 1e-05 0.0165889 0.00110794 1e-05
0.0167201 0.00110741 1e-05 0.0168514 0.00110688 1e-05 0.0169826 0.00110634 1e-05 0.0171139
0.00110579 1e-05 0.0172462 0.00110522 1e-05 0.0173785 0.00110464 1e-05 0.0175108 0.00110406
1e-05 0.0176431 0.00110347 1e-05 0.0177754 0.00110286 1e-05 0.0179087 0.00110224 1e-05
0.018042 0.00110162 1e-05 0.0181754 0.00110098 1e-05 0.0183087 0.00110033 1e-05 0.018442
0.00109968 1e-05 0.0185763 0.00109901 1e-05 0.0187107 0.00109833 1e-05 0.018845 0.00109764
1e-05 0.0189794 0.00109694 1e-05 0.0191137 0.00109623 1e-05 0.0192491 0.00109551 1e-05
0.0193845 0.00109478 1e-05 0.0195199 0.00109403 1e-05 0.0196553 0.00109328 1e-05 0.0197907
0.00109252 1e-05 0.0199272 0.00109175 1e-05 0.0200636 0.00109097 1e-05 0.0202001 0.00109017
1e-05 0.0203365 0.00108936 1e-05 0.020473 0.00108855 1e-05 0.0206105 0.00108773 1e-05
0.020748 0.00108689 1e-05 0.0208856 0.00108604 1e-05 0.0210231 0.00108517 1e-05 0.0211606
0.00108431 1e-05 0.0212992 0.00108344 1e-05 0.0214378 0.00108255 1e-05 0.0215763 0.00108164
1e-05 0.0217149 0.00108073 1e-05 0.0218535 0.00107981 1e-05 0.0219931 0.00107889 1e-05
0.0221328 0.00107795 1e-05 0.0222724 0.00107699 1e-05 0.0224121 0.00107602 1e-05 0.0225517
0.00107505 1e-05 0.0226925 0.00107407 1e-05 0.0228332 0.00107308 1e-05 0.022974 0.00107207
1e-05 0.0231147 0.00107104 1e-05 0.0232555 0.00107002 1e-05 0.0233973 0.001069 1e-05
0.0235392 0.00106795 1e-05 0.023681 0.00106688 1e-05 0.0238229 0.0010658 1e-05 0.0239647
0.00106473 1e-05 0.0241076 0.00106365 1e-05 0.0242506 0.00106255 1e-05 0.0243935 0.00106143
1e-05 0.0245365 0.0010603 1e-05 0.0246794 0.00105917 1e-05 0.0248234 0.00105804 1e-05
0.0249675 0.00105689 1e-05 0.0251115 0.00105571 1e-05 0.0252556 0.00105453 1e-05 0.0253996
0.00105335 1e-05 0.0255448 0.00105216 1e-05 0.02569 0.00105096 1e-05 0.0258351 0.00104972
1e-05 0.0259803 0.00104848 1e-05 0.0261255 0.00104725 1e-05 0.0262718 0.00104601 1e-05
0.0264181 0.00104475 1e-05 0.0265644 0.00104346 1e-05 0.0267107 0.00104217 1e-05 0.026857
0.00104088 1e-05 0.0270044 0.00103959 1e-05 0.0271519 0.00103827 1e-05 0.0272993 0.00103693
1e-05 0.0274468 0.00103558 1e-05 0.0275942 0.00103424 1e-05 0.0277428 0.00103289 1e-05
0.0278914 0.00103152 1e-05 0.0280399 0.00103012 1e-05 0.0281885 0.00102872 1e-05 0.0283371
0.00102732 1e-05 0.0284868 0.00102591 1e-05 0.0286366 0.00102448 1e-05 0.0287863 0.00102303
1e-05 0.0289361 0.00102158 1e-05 0.0290858 0.00102012 1e-05 0.0292367 0.00101866 1e-05
0.0293876 0.00101717 1e-05 0.0295385 0.00101566 1e-05 0.0296894 0.00101415 1e-05 0.0298403
0.00101263 1e-05 0.0299924 0.00101111 1e-05 0.0301445 0.00100956 1e-05 0.0302965 0.00100799
1e-05 0.0304486 0.00100642 1e-05 0.0306007 0.00100485 1e-05 0.030754 0.00100326 1e-05
0.0309072 0.00100165 1e-05 0.0310605 0.00100003 1e-05 0.0312137 0.0009984 1e-05 0.031367
0.000996761 1e-05 0.0315215 0.000995115 1e-05 0.0316759 0.000993442 1e-05 0.0318304 0.00099176
1e-05 0.0319848 0.000990069 1e-05 0.0321393 0.000988369 1e-05 0.0322949 0.000986658 1e-05
0.0324506 0.000984924 1e-05 0.0326062 0.00098318 1e-05 0.0327619 0.000981426 1e-05 0.0329175
[...]
POINT_DATA 12030
FIELD attributes 4
age 1 12030 float
-9.999e-06 -7.99907e-06 -5.9992e-06 -3.9994e-06 -1.99967e-06 0 2.9651e-05 5.92887e-05 8.89131e-05 0.000118524 0.000148122
0.000178445 0.000208757 0.000239061 0.000269358 0.000299647 0.000328725 0.000357799 0.000386873 0.000415947 0.000445021
0.000472936 0.000500851 0.00052877 0.000556691 0.000584615 0.000588354 0.000592093 0.000595832 0.000599571 0.000603306
0.000626382 0.000649461 0.000672543 0.000695627 0.000718714 0.000744472 0.000770232 0.000795996 0.000821765 0.000847538
0.000872285 0.000897035 0.000921789 0.000946548 0.000971312 0.000995093 0.00101888 0.00104266 0.00106646 0.00109025
0.00111311 0.00113596 0.00115882 0.00118168 0.00120455 0.00122651 0.00124848 0.00127044 0.00129241 0.00131439
0.0013355 0.0013566 0.00137771 0.00139883 0.00141995 0.00144024 0.00146052 0.00148081 0.0015011 0.0015214
0.00154089 0.00156039 0.00157988 0.00159938 0.00161889 0.00163763 0.00165636 0.0016751 0.00169384 0.00171258
0.00173059 0.00174859 0.0017666 0.00178461 0.00180262 0.00181993 0.00183723 0.00185453 0.00187184 0.00188915
0.00190579 0.00192241 0.00193904 0.00195567 0.0019723 0.00198829 0.00200426 0.00202024 0.00203622 0.0020522
0.00206289 0.00207356 0.00208424 0.00209491 0.00210559 0.00211637 0.00212713 0.0021379 0.00214867 0.00215944
0.00217031 0.00218116 0.00219202 0.00220288 0.00221375 0.0022247 0.00223565 0.0022466 0.00225755 0.0022685
0.00227955 0.00229059 0.00230163 0.00231267 0.00232371 0.00233484 0.00234597 0.0023571 0.00236823 0.00237937
0.0023906 0.00240182 0.00241304 0.00242427 0.00243549 0.00244682 0.00245813 0.00246945 0.00248078 0.0024921
0.00250353 0.00251494 0.00252636 0.00253779 0.00254922 0.00256074 0.00257227 0.00258379 0.00259532 0.00260685
0.00261849 0.00263012 0.00264175 0.00265339 0.00266503 0.00267678 0.00268852 0.00270026 0.00271201 0.00272377
0.00273563 0.00274748 0.00275935 0.00277121 0.00278309 0.00279506 0.00280704 0.00281902 0.00283101 0.002843
0.00285194 0.00286088 0.00286982 0.00287877 0.00288731 0.00289055 0.0028938 0.00289705 0.0029003 0.00290355
0.00291577 0.002928 0.00294023 0.00295248 0.00296473 0.00297709 0.00298945 0.00300182 0.0030142 0.00302659
0.0030391 0.0030516 0.0030641 0.00307662 0.00308915 0.00310181 0.00311445 0.00312711 0.00313977 0.00315244
0.00316526 0.00317805 0.00319085 0.00320366 0.00321648 0.00322945 0.0032424 0.00325535 0.00326832 0.0032813
0.00329443 0.00330754 0.00332065 0.00333378 0.00334692 0.00336022 0.00337349 0.00338677 0.00340006 0.00341337
0.00342684 0.00344028 0.00345372 0.00346718 0.00348065 0.00349431 0.00350792 0.00352154 0.00353517 0.00354881
0.00356265 0.00357644 0.00359023 0.00360405 0.00361787 0.00363189 0.00364586 0.00365984 0.00367383 0.00368785
0.00370206 0.00371622 0.00373038 0.00374456 0.00375877 0.00377317 0.00378753 0.00380189 0.00381626 0.00383066
0.00384526 0.00385982 0.00387437 0.00388893 0.00390354 0.00391834 0.00393309 0.00394784 0.00396261 0.00397742
0.00399241 0.00400737 0.00402232 0.00403728 0.00405229 0.00406749 0.00408266 0.00409782 0.00411298 0.00412821
0.00414361 0.004159 0.00417436 0.00418973 0.00420517 0.00422078 0.00423638 0.00425195 0.00426754 0.00428319
0.00429901 0.00431482 0.0043306 0.00434641 0.00436227 0.00437831 0.00439433 0.00441034 0.00442636 0.00444243
0.00445869 0.00447494 0.00449117 0.00450741 0.00452371 0.00454019 0.00455665 0.0045731 0.00458957 0.00460609
0.00462278 0.00463947 0.00465614 0.00467284 0.00468958 0.00470649 0.0047234 0.0047403 0.00475722 0.00477418
0.00479132 0.00480846 0.00482559 0.00484273 0.00485993 0.00487729 0.00489465 0.00491201 0.00492939 0.00494681
0.0049644 0.00498199 0.00499959 0.0050172 0.00503484 0.00505267 0.00507049 0.00508831 0.00510616 0.00512403
0.00514209 0.00516014 0.0051782 0.00519628 0.00521439 0.00523268 0.00525096 0.00526926 0.00528758 0.00530592
0.00532444 0.00534296 0.0053615 0.00538005 0.00539863 0.00541738 0.00543614 0.00545492 0.00547371 0.00549252
0.00551151 0.00553051 0.00554953 0.00556856 0.00558761 0.00560684 0.00562608 0.00564533 0.0056646 0.00568389
0.00570337 0.00572285 0.00574235 0.00576187 0.0057814 0.00580112 0.00582084 0.00584058 0.00586034 0.00588012
0.00590007 0.00592004 0.00594003 0.00596003 0.00598005 0.00600025 0.00602047 0.0060407 0.00606096 0.00608123
0.00608252 0.00608382 0.00608511 0.00608641 0.0060877 0.00610686 0.00612603 0.00614522 0.00616442 0.00618365
0.00620434 0.00622505 0.00624579 0.00626654 0.00628731 0.00630826 0.00632923 0.00635022 0.00637123 0.00639226
0.00641347 0.00643469 0.00645594 0.0064772 0.00649848 0.00651994 0.00654142 0.00656292 0.00658444 0.00660598
0.0066277 0.00664944 0.0066712 0.00669298 0.00671478 0.00673677 0.00675877 0.00678079 0.00680284 0.0068249
0.00684714 0.00686941 0.0068917 0.006914 0.00693633 0.00695884 0.00698137 0.00700392 0.0070265 0.00704908
0.00707186 0.00709466 0.00711747 0.00714031 0.00716317 0.00718622 0.00720929 0.00723238 0.00725549 0.00727862
0.00730194 0.00732528 0.00734865 0.00737203 0.00739543 0.00741903 0.00744265 0.00746629 0.00748995 0.00751363
0.0075375 0.0075614 0.00758532 0.00760926 0.00763322 0.00765737 0.00768155 0.00770575 0.00772997 0.00775421
0.00777865 0.00780312 0.00782761 0.00785212 0.00787664 0.00790137 0.00792612 0.0079509 0.0079757 0.00800051
0.00802553 0.00805057 0.00807564 0.00810073 0.00812584 0.00815115 0.0081765 0.00820186 0.00822725 0.00825265
0.00827827 0.00830391 0.00832958 0.00835526 0.00838097 0.00840689 0.00843284 0.00845882 0.00848481 0.00851082
0.00853705 0.00856331 0.00858959 0.00861589 0.00864221 0.00866876 0.00869533 0.00872192 0.00874854 0.00877518
0.00879302 0.00881088 0.00882874 0.00884661 0.00886372 0.00887293 0.00888214 0.00889135 0.00890056 0.00890977
0.00893697 0.00896418 0.00899142 0.00901869 0.00904598 0.00907351 0.00910106 0.00912864 0.00915624 0.00918388
0.00921173 0.00923962 0.00926754 0.00929548 0.00932346 0.00935166 0.0093799 0.00940817 0.00943646 0.00946479
0.00949334 0.00952193 0.00955054 0.00957919 0.00960787 0.00963678 0.00966573 0.00969472 0.00972374 0.00975277
0.00978205 0.00981136 0.00984071 0.0098701 0.0098995 0.00992915 0.00995884 0.00998857 0.0100183 0.0100481
0.0100782 0.0101082 0.0101384 0.0101685 0.0101987 0.0102291 0.0102596 0.0102901 0.0103206 0.0103512
0.010382 0.0104129 0.0104438 0.0104747 0.0105057 0.0105369 0.0105682 0.0105995 0.0106309 0.0106623
0.0106939 0.0107257 0.0107574 0.0107892 0.010821 0.0108531 0.0108852 0.0109174 0.0109496 0.0109818
0.0109914 0.0110009 0.0110104 0.0110199 0.0110292 0.0110524 0.0110755 0.0110986 0.0111218 0.011145
0.011178 0.0112111 0.0112441 0.0112773 0.0113105 0.0113439 0.0113775 0.011411 0.0114447 0.0114783
0.0115123 0.0115463 0.0115804 0.0116145 0.0116487 0.0116832 0.0117177 0.0117523 0.011787 0.0118217
0.0118567 0.0118917 0.0119269 0.011962 0.0119973 0.0120328 0.0120684 0.0121041 0.0121398 0.0121756
0.0122117 0.0122479 0.0122841 0.0123204 0.0123568 0.0123935 0.0124302 0.0124671 0.0125039 0.0125409
0.012571 0.0126011 0.0126313 0.0126615 0.01269 0.0126976 0.0127052 0.0127129 0.0127205 0.0127281
0.012766 0.012804 0.012842 0.0128801 0.0129183 0.0129569 0.0129955 0.0130342 0.0130729 0.0131117
0.0131509 0.0131902 0.0132295 0.013269 0.0133085 0.0133483 0.0133883 0.0134283 0.0134684 0.0135086
0.0135492 0.0135899 0.0136306 0.0136714 0.0137123 0.0137537 0.0137951 0.0138365 0.0138781 0.0139198
0.0139618 0.014004 0.0140463 0.0140886 0.0141311 0.0141461 0.0141611 0.0141761 0.0141912 0.0142059
0.0142339 0.014262 0.0142901 0.0143183 0.0143465 0.0143902 0.0144339 0.0144778 0.0145218 0.0145659
0.0146104 0.0146551 0.0146998 0.0147446 0.0147896 0.014835 0.0148805 0.0149261 0.0149719 0.0150177
0.0150641 0.0151105 0.0151571 0.0152037 0.0152506 0.0152978 0.0153453 0.0153928 0.0154404 0.0154882
0.0155225 0.0155568 0.0155912 0.0156256 0.0156586 0.0156731 0.0156876 0.0157021 0.0157166 0.0157312
0.0157805 0.0158299 0.0158795 0.0159292 0.0159791 0.0160295 0.01608 0.0161307 0.0161816 0.0162326
0.0162841 0.0163358 0.0163876 0.0164396 0.0164917 0.0165445 0.0165973 0.0166504 0.0167036 0.016757
0.0168109 0.016865 0.0169192 0.0169736 0.0170282 0.0170421 0.017056 0.0170699 0.0170838 0.0170975
0.0171391 0.0171808 0.0172226 0.0172645 0.0173065 0.017363 0.0174197 0.0174766 0.0175337 0.017591
0.0176489 0.0177071 0.0177654 0.017824 0.0178828 0.0179422 0.0180018 0.0180616 0.0181216 0.0181819
0.0182428 0.018304 0.0183654 0.018427 0.0184888 0.0185024 0.018516 0.0185296 0.0185432 0.0185567
0.0186059 0.0186552 0.0187047 0.0187543 0.0188041 0.0188684 0.0189328 0.0189975 0.0190624 0.0191277
0.0191936 0.0192598 0.0193263 0.019393 0.01946 0.0195278 0.0195959 0.0196642 0.0197328 0.0198017
0.0198541 0.0199067 0.0199594 0.0200123 0.0200635 0.0200814 0.0200993 0.0201173 0.0201353 0.0201533
0.0202251 0.0202971 0.0203694 0.0204421 0.020515 0.0205888 0.020663 0.0207374 0.0208121 0.0208873
0.0209633 0.0210396 0.0211163 0.0211933 0.0212708 0.021345 0.0214196 0.0214945 0.0215697 0.0216421
0.0216469 0.0216516 0.0216564 0.0216612 0.021666 0.0217467 0.0218278 0.0219093 0.0219912 0.0220734
0.0221566 0.0222402 0.0223242 0.0224086 0.0224934 0.0225793 0.0226656 0.0227523 0.0228395 0.0229271
0.0230048 0.0230829 0.0231613 0.02324 0.0233164 0.0233281 0.0233398 0.0233515 0.0233632 0.0233749
0.0234664 0.0235585 0.0236509 0.0237439 0.0238373 0.0239319 0.0240269 0.0241224 0.0242184 0.024315
0.0244127 0.0245109 0.0246096 0.0247088 0.0248086 0.0248689 0.0249295 0.0249902 0.0250511 0.0251111
0.0251526 0.0251942 0.0252359 0.0252777 0.0253195 0.025424 0.025529 0.0256346 0.0257407 0.0258474
0.0259554 0.0260639 0.026173 0.0262827 0.0263931 0.0265048 0.0266172 0.0267301 0.0268436 0.0269579
0.0269768 0.0269957 0.0270147 0.0270336 0.0270526 0.0271497 0.0272472 0.0273452 0.0274436 0.0275425
0.0276621 0.0277824 0.0279034 0.028025 0.0281473 0.028271 0.0283954 0.0285205 0.0286462 0.0287727
0.0288517 0.0289311 0.0290107 0.0290905 0.0291699 0.0292199 0.0292701 0.0293203 0.0293707 0.0294212
0.0295536 0.0296868 0.0298207 0.0299553 0.0300906 0.0302275 0.0303653 0.0305038 0.030643 0.0307829
0.0309239 0.0310656 0.0312081 0.0313513 0.0314942 0.0314951 0.0314959 0.0314967 0.0314975 0.0314983
0.0316447 0.0317918 0.0319396 0.0320882 0.0322375 0.0323888 0.0325408 0.0326938 0.0328474 0.0330018
0.0331578 0.0333147 0.0334724 0.0336308 0.03379 0.0338203 0.0338507 0.0338812 0.0339116 0.0339421
0.0340736 0.0342055 0.034338 0.0344709 0.0346043 0.0347704 0.0349373 0.035105 0.0352735 0.0354426
0.0356136 0.0357855 0.0359582 0.0361316 0.0363056 0.0363633 0.0364211 0.0364789 0.0365369 0.0365952
0.0367144 0.036834 0.0369538 0.037074 0.0371944 0.0373753 0.037557 0.0377394 0.0379225 0.0381061
0.0382918 0.0384782 0.0386654 0.0388532 0.0390415 0.0391324 0.0392235 0.0393147 0.0394061 0.039499
0.0395989 0.039699 0.0397992 0.0398996 0.0400001 0.0401949 0.0403904 0.0405865 0.0407831 0.04098
0.0411789 0.0413784 0.0415786 0.0417792 0.04198 0.0421242 0.0422686 0.0424133 0.0425583 0.0427082
0.0427664 0.0428247 0.042883 0.0429413 0.0429996 0.0432063 0.0434133 0.0436208 0.0438287 0.0440366
0.0442464 0.0444567 0.0446675 0.0448785 0.0450894 0.0453023 0.0455155 0.045729 0.0459427 0.0461563
0.0461839 0.0462116 0.0462392 0.0462668 0.0462947 0.0464828 0.046671 0.0468593 0.0470478 0.0472361
0.0474538 0.0476716 0.0478896 0.0481077 0.0483255 0.048545 0.0487647 0.0489845 0.0492042 0.0494235
0.0496108 0.049798 0.0499853 0.0501724 0.0503745 0.0504052 0.050436 0.0504667 0.0504974 0.0505282
0.0507503 0.0509723 0.0511942 0.0514159 0.051637 0.0518597 0.0520823 0.0523047 0.0525269 0.0527484
0.0529713 0.0531941 0.0534166 0.0536387 0.0538601 0.0540829 0.0543054 0.0545274 0.054749 0.0549697
0.0550449 0.0551201 0.0551952 0.0552703 0.0553511 0.0554961 0.055641 0.0557856 0.05593 0.0560739
0.056295 0.0565155 0.0567352 0.0569542 0.057172 0.0573819 0.0575914 0.0578003 0.0580084 0.0582154
0.0584294 0.0586426 0.0588548 0.059066 0.0592759 0.059325 0.059374 0.059423 0.0594719 0.0595225
0.0596893 0.0598553 0.0600207 0.0601855 0.0603494 0.060569 0.0607873 0.0610044 0.0612203 0.0614345
0.0616557 0.0618754 0.0620938 0.0623107 0.0625259 0.0626489 0.0627715 0.0628936 0.0630151 0.0631499
0.0632442 0.0633381 0.0634318 0.0635252 0.0636182 0.0638406 0.0640612 0.0642801 0.0644972 0.0647126
0.0649344 0.0651544 0.0653726 0.065589 0.0658035 0.0660245 0.0662435 0.0664606 0.0666758 0.066889
0.0669883 0.0670871 0.0671854 0.0672834 0.0673921 0.0675076 0.0676226 0.067737 0.0678508 0.067964
0.0681817 0.0683973 0.0686108 0.0688222 0.0690317 0.0692472 0.0694606 0.0696719 0.0698811 0.0700884
0.0703014 0.0705123 0.0707211 0.0709277 0.0711324 0.0713429 0.0715513 0.0717575 0.0719616 0.0721637
0.072272 0.0723796 0.0724867 0.0725932 0.072716 0.0728095 0.0729024 0.0729949 0.073087 0.0731787
0.0733837 0.0735865 0.0737872 0.0739857 0.0741824 0.0743845 0.0745845 0.0747823 0.0749781 0.0751719
0.0753712 0.0755683 0.0757632 0.0759562 0.0761472 0.0763436 0.0765379 0.0767301 0.0769203 0.0771086
0.0773022 0.0774938 0.0776832 0.0778707 0.0780563 0.078247 0.0784357 0.0786223 0.078807 0.0789899
0.079178 0.079364 0.079548 0.07973 0.0799102 0.0800698 0.080228 0.0803847 0.08054 0.0807094
0.0807306 0.0807519 0.0807731 0.0807942 0.0808154 0.0809978 0.0811778 0.0813556 0.0815312 0.0817045
0.0818824 0.0820576 0.0822314 0.0824036 0.0825748 -9.99971e-06 -7.99973e-06 -5.99977e-06 -3.99983e-06 -1.9999e-06
0 2.96546e-05 5.9305e-05 8.89511e-05 0.000118593 0.000148229 0.000178596 0.000208956 0.000239311 0.000269659
0.000300002 0.000329125 0.000358243 0.000387355 0.000416461 0.000445561 0.000473494 0.000501421 0.000529343 0.000557261
0.000585175 0.000611969 0.00063876 0.000665547 0.000692329 0.000719108 0.000744811 0.00077051 0.000796206 0.000821899
0.000847588 0.000872246 0.000896902 0.000921554 0.000946202 0.000970848 0.000994507 0.00101816 0.00104182 0.00106547
0.00108911 0.00111181 0.00113451 0.00115721 0.0011799 0.00120259 0.00122437 0.00124615 0.00126792 0.0012897
0.00131147 0.00133237 0.00135327 0.00137416 0.00139506 0.00141595 0.001436 0.00145606 0.00147611 0.00149616
0.00151621 0.00153545 0.0015547 0.00157394 0.00159318 0.00161242 0.00163088 0.00164935 0.00166782 0.00168628
0.00170474 0.00172246 0.00174019 0.00175791 0.00177563 0.00179334 0.00181035 0.00182736 0.00184437 0.00186137
0.00187837 0.0018947 0.00191102 0.00192734 0.00194366 0.00195998 0.00197564 0.00199131 0.00200697 0.00202263
0.00203829 0.00204875 0.00205921 0.00206966 0.00208011 0.00209057 0.0021011 0.00211164 0.00212217 0.0021327
0.00214323 0.00215385 0.00216446 0.00217507 0.00218569 0.0021963 0.00220699 0.00221769 0.00222838 0.00223907
0.00224976 0.00226054 0.00227131 0.00228208 0.00229285 0.00230363 0.00231448 0.00232533 0.00233619 0.00234704
0.00235789 0.00236883 0.00237977 0.0023907 0.00240164 0.00241257 0.00242359 0.00243461 0.00244562 0.00245664
0.00246766 0.00247876 0.00248986 0.00250096 0.00251206 0.00252316 0.00253435 0.00254553 0.00255672 0.0025679
0.00257908 0.00259036 0.00260163 0.0026129 0.00262416 0.00263543 0.00264679 0.00265815 0.0026695 0.00268086
0.00269221 0.00270365 0.0027151 0.00272654 0.00273798 0.00274942 0.00276095 0.00277248 0.00278401 0.00279554
0.00280707 0.00281869 0.00283031 0.00284192 0.00285354 0.00286516 0.00287687 0.00288858 0.00290028 0.00291199
0.0029237 0.00293549 0.00294729 0.00295909 0.00297088 0.00298268 0.00299457 0.00300646 0.00301834 0.00303023
0.00304212 0.0030541 0.00306608 0.00307806 0.00309004 0.00310202 0.00311409 0.00312616 0.00313823 0.0031503
0.00316237 0.00317454 0.0031867 0.00319887 0.00321103 0.0032232 0.00323546 0.00324772 0.00325997 0.00327223
0.00328449 0.00329685 0.0033092 0.00332155 0.00333391 0.00334626 0.00335871 0.00337116 0.00338361 0.00339606
0.0034085 0.00342105 0.00343359 0.00344614 0.00345868 0.00347122 0.00348387 0.00349651 0.00350915 0.00352179
0.00353444 0.00354717 0.00355991 0.00357265 0.00358539 0.00359813 0.00361096 0.0036238 0.00363664 0.00364948
0.00366232 0.00367525 0.00368819 0.00370112 0.00371406 0.00372699 0.00374003 0.00375307 0.00376611 0.00377915
0.00379218 0.00379363 0.00379508 0.00379654 0.00379799 0.00379944 0.00381112 0.00382281 0.0038345 0.00384618
0.00385787 0.00387111 0.00388435 0.00389758 0.00391082 0.00392406 0.0039374 0.00395074 0.00396408 0.00397742
0.00399076 0.00400421 0.00401765 0.0040311 0.00404454 0.00405799 0.00407154 0.00408509 0.00409863 0.00411218
0.00412573 0.00413938 0.00415304 0.00416669 0.00418034 0.00419399 0.00420775 0.00422151 0.00423526 0.00424902
0.00426278 0.00427664 0.00429051 0.00430438 0.00431824 0.00433211 0.00434608 0.00436005 0.00437402 0.004388
0.00440197 0.00441605 0.00443013 0.00444421 0.00445829 0.00447237 0.00448656 0.00450075 0.00451493 0.00452912
0.00454331 0.00455761 0.00457191 0.00458621 0.00460051 0.00461481 0.00462922 0.00464363 0.00465804 0.00467245
0.00468686 0.00470138 0.0047159 0.00473042 0.00474495 0.00475947 0.0047741 0.00478874 0.00480337 0.00481801
0.00483264 0.00484739 0.00486214 0.00487689 0.00489163 0.00490638 0.00492125 0.00493611 0.00495098 0.00496584
0.0049807 0.00499568 0.00501066 0.00502564 0.00504062 0.0050556 0.0050707 0.0050858 0.00510089 0.00511599
0.00513109 0.00514631 0.00516152 0.00517674 0.00519195 0.00520717 0.0052225 0.00523784 0.00525317 0.0052685
0.00528383 0.00529929 0.00531475 0.00533021 0.00534566 0.00536112 0.0053767 0.00539228 0.00540785 0.00542343
0.00543901 0.00545471 0.0054704 0.0054861 0.0055018 0.0055175 0.00553333 0.00554915 0.00556498 0.00558081
0.00559663 0.00561259 0.00562854 0.00564449 0.00566044 0.00567639 0.00569247 0.00570854 0.00572462 0.0057407
0.00575678 0.00577298 0.00578919 0.0058054 0.00582161 0.00583782 0.00585312 0.00586842 0.00588372 0.00589902
0.00591406 0.00591515 0.00591624 0.00591733 0.00591842 0.00591951 0.00593598 0.00595245 0.00596892 0.00598539
0.00600186 0.00601846 0.00603507 0.00605167 0.00606827 0.00608488 0.00610162 0.00611836 0.0061351 0.00615185
0.00616859 0.00618548 0.00620235 0.00621923 0.00623611 0.00625299 0.00627002 0.00628703 0.00630405 0.00632107
0.00633809 0.00635526 0.00637242 0.00638957 0.00640673 0.00642389 0.00644122 0.00645852 0.00647583 0.00649313
0.00651045 0.00652792 0.00654537 0.00656282 0.00658026 0.00659773 0.00661535 0.00663296 0.00665055 0.00666815
0.00668577 0.00670355 0.00672131 0.00673905 0.0067568 0.00677457 0.00679251 0.00681043 0.00682833 0.00684623
0.00686416 0.00688226 0.00690034 0.0069184 0.00693646 0.00695456 0.00697282 0.00699106 0.00700928 0.00702751
0.00704576 0.00706419 0.0070826 0.00710099 0.00711938 0.0071378 0.0071564 0.00717497 0.00719353 0.0072121
0.00723069 0.00724946 0.00726821 0.00728694 0.00730569 0.00732445 0.0073434 0.00736232 0.00738124 0.00740017
0.00741911 0.00743823 0.00745733 0.00747643 0.00749554 0.00751466 0.00753397 0.00755325 0.00757255 0.00759185
0.00761116 0.00763065 0.00765012 0.00766961 0.0076891 0.0077086 0.00772828 0.00774795 0.00776763 0.00778732
0.00780702 0.00782086 0.0078347 0.00784855 0.0078624 0.00787586 0.00788197 0.00788809 0.00789421 0.00790034
0.00790646 0.00792653 0.0079466 0.00796669 0.00798679 0.00800689 0.00802718 0.00804747 0.00806777 0.00808808
0.0081084 0.00812891 0.00814941 0.00816991 0.00819043 0.00821096 0.00823171 0.00825243 0.00827316 0.0082939
0.00831466 0.00833563 0.00835658 0.00837753 0.00839849 0.00841948 0.00844069 0.00846188 0.00848306 0.00850425
0.00852548 0.00854694 0.00856837 0.00858978 0.00861121 0.00863269 0.00865438 0.00867606 0.00869772 0.00871939
0.00874111 0.00876306 0.00878499 0.0088069 0.00882883 0.00885081 0.00887302 0.00889521 0.00891738 0.00893957
0.00896181 0.00898428 0.00900673 0.00902917 0.00905164 0.00907414 0.00909688 0.00911959 0.00914232 0.00916507
0.00918784 0.00921085 0.00923384 0.00925686 0.0092799 0.00930296 0.00932624 0.00934953 0.00937284 0.00939616
0.00941952 0.00943447 0.00944943 0.0094644 0.00947938 0.00949389 0.00950262 0.00951136 0.0095201 0.00952884
0.00953759 0.00956146 0.00958535 0.00960926 0.0096332 0.00965716 0.00968135 0.00970555 0.00972978 0.00975403
0.00977831 0.00980283 0.00982735 0.0098519 0.00987648 0.00990109 0.00992594 0.0099508 0.00997567 0.0100006
0.0100255 0.0100507 0.0100759 0.0101011 0.0101264 0.0101517 0.0101772 0.0102028 0.0102283 0.0102539