# Selection     : all 
# Volume        : 1.45160395e-05
# Time          	max(p)	max(epsilon)	max(k)
0               	0.00000000e+00	1.48550000e+01	3.75000000e-01
1               	7.47235675e+02	1.03341288e+03	8.84106038e+00
2               	1.13310991e+02	3.14839902e+04	1.20371659e+01
3               	3.76060055e+01	3.88846738e+04	7.66869614e+00
4               	2.18017552e+01	1.65864565e+04	5.47345101e+00
5               	2.07446552e+01	6.56626540e+03	5.10913011e+00
6               	2.19380526e+01	5.92079741e+03	4.17898744e+00
7               	2.90240839e+01	6.99356911e+03	4.28098659e+00
8               	3.40586491e+01	5.11481829e+03	3.51695366e+00
9               	3.77483198e+01	4.32277561e+03	3.04193332e+00
10              	3.98754375e+01	4.66430866e+03	4.04155081e+00
11              	4.08018202e+01	4.36310436e+03	3.34054205e+00
12              	4.07260889e+01	3.90634727e+03	3.47558093e+00
13              	3.92215007e+01	3.90664021e+03	3.59677084e+00
14              	3.70016839e+01	3.84965041e+03	3.70822331e+00
15              	3.41449213e+01	3.77036820e+03	3.80534525e+00
16              	3.11810490e+01	3.80476318e+03	3.88652987e+00
17              	2.82146268e+01	3.79433845e+03	3.95863751e+00
18              	2.50650705e+01	3.38735128e+03	4.02140238e+00
19              	2.25133372e+01	3.38664995e+03	4.06972795e+00
20              	2.10690826e+01	3.61895757e+03	4.13024875e+00
21              	2.08237807e+01	3.85243060e+03	4.18917133e+00
22              	2.07763662e+01	4.08854683e+03	4.24330330e+00
23              	2.05104907e+01	4.29921626e+03	4.29341201e+00
24              	2.04940866e+01	4.44260996e+03	4.34290342e+00
25              	2.04029410e+01	4.54597522e+03	4.39179998e+00
26              	2.03614883e+01	4.61866170e+03	4.44132379e+00
27              	2.03942787e+01	4.68190936e+03	4.48721283e+00
28              	2.03763947e+01	4.73694833e+03	4.53007469e+00
29              	2.03584274e+01	4.76097230e+03	4.57728233e+00
30              	2.03106805e+01	4.76016425e+03	4.61660698e+00
31              	2.02336052e+01	4.75127185e+03	4.65729028e+00
32              	2.02154335e+01	4.73306164e+03	4.68896581e+00
33              	2.01032838e+01	4.72085928e+03	4.72482969e+00
34              	2.00888614e+01	4.65947377e+03	4.75033128e+00
35              	2.00108373e+01	4.68206848e+03	4.77358122e+00
36              	1.99154599e+01	4.72428147e+03	4.79622459e+00
37              	1.97994291e+01	4.74426602e+03	4.80862056e+00
38              	1.97634416e+01	4.76158355e+03	4.82384032e+00
39              	1.96207394e+01	4.77836793e+03	4.83298856e+00
40              	1.95587178e+01	4.80508925e+03	4.83284752e+00
41              	1.95186349e+01	4.82308525e+03	4.83672928e+00
42              	1.93897329e+01	4.83509845e+03	4.83214185e+00
43              	1.92908957e+01	4.83971808e+03	4.81662920e+00
44              	1.92401193e+01	4.84993192e+03	4.80335967e+00
45              	1.91471342e+01	4.87494374e+03	4.78557715e+00
46              	1.90860453e+01	4.90236804e+03	4.79110439e+00
47              	1.89897738e+01	4.91939432e+03	4.86252115e+00
48              	1.88810798e+01	4.92433511e+03	4.93579973e+00
49              	1.88161126e+01	4.92076951e+03	5.00794799e+00
50              	1.87136735e+01	4.91207643e+03	5.07822589e+00
51              	1.86123982e+01	4.90294047e+03	5.14633659e+00
52              	1.85323289e+01	4.89145775e+03	5.21309802e+00
53              	1.84516918e+01	4.88367856e+03	5.28024437e+00
54              	1.83529814e+01	4.87930850e+03	5.34522268e+00
55              	1.83270108e+01	4.87563342e+03	5.41140265e+00
56              	1.83061030e+01	4.87225006e+03	5.47947326e+00
57              	1.82908772e+01	4.86955672e+03	5.54528762e+00
58              	1.82847244e+01	4.86907835e+03	5.60974260e+00
59              	1.82911706e+01	4.86895308e+03	5.67250402e+00
60              	1.83072268e+01	4.87206133e+03	5.73655951e+00
61              	1.83459648e+01	4.87511718e+03	5.80199104e+00
62              	1.83786091e+01	4.87882007e+03	5.86539806e+00
63              	1.83873512e+01	4.88270313e+03	5.92667262e+00
64              	1.84328912e+01	4.88587480e+03	5.98583009e+00
65              	1.84709236e+01	4.88891032e+03	6.04383761e+00
66              	1.85059151e+01	4.89193903e+03	6.10401459e+00
67              	1.85201740e+01	4.89504276e+03	6.16169240e+00
68              	1.85624246e+01	4.89777455e+03	6.21777106e+00
69              	1.85802959e+01	4.90046220e+03	6.27126735e+00
70              	1.86126286e+01	4.90357351e+03	6.32183659e+00
71              	1.86193144e+01	4.90626768e+03	6.36928869e+00
72              	1.86357715e+01	4.90903873e+03	6.41870446e+00
73              	1.86204594e+01	4.91157722e+03	6.46610640e+00
74              	1.85990944e+01	4.91415631e+03	6.51026276e+00
75              	1.85717762e+01	4.91616597e+03	6.55219351e+00
76              	1.85189698e+01	4.91775818e+03	6.59294590e+00
77              	1.84492576e+01	4.91953974e+03	6.63433684e+00
78              	1.83608205e+01	4.92067785e+03	6.67485478e+00
79              	1.82502466e+01	4.92213719e+03	6.71390108e+00
80              	1.81171369e+01	4.92333549e+03	6.75188517e+00
81              	1.80284724e+01	4.92450089e+03	6.78812393e+00
82              	1.80284229e+01	4.92507310e+03	6.82254854e+00
83              	1.79975788e+01	4.92561916e+03	6.85513556e+00
84              	1.79489835e+01	4.92639302e+03	6.88763678e+00
85              	1.78493200e+01	4.92647006e+03	6.91859139e+00
86              	1.77390026e+01	4.92638954e+03	6.94757178e+00
87              	1.75637988e+01	4.92598222e+03	6.97451987e+00
88              	1.73816892e+01	4.92558015e+03	6.99943356e+00
89              	1.71284775e+01	4.92477768e+03	7.02248900e+00
90              	1.68718395e+01	4.92393114e+03	7.04419446e+00
91              	1.65744080e+01	4.92289104e+03	7.06369190e+00
92              	1.62635158e+01	4.92234503e+03	7.08087495e+00
93              	1.59581141e+01	4.92107244e+03	7.09564571e+00
94              	1.56247927e+01	4.92004384e+03	7.10790934e+00
95              	1.54052865e+01	4.91902162e+03	7.11869078e+00
96              	1.51413060e+01	4.91794513e+03	7.12681469e+00
97              	1.48826339e+01	4.91609215e+03	7.13214096e+00
98              	1.46077199e+01	4.91469985e+03	7.13462876e+00
99              	1.43776998e+01	4.91328938e+03	7.13421679e+00
100             	1.41518373e+01	4.91166711e+03	7.13124491e+00
101             	1.39363322e+01	4.90989070e+03	7.12577344e+00
102             	1.37181571e+01	4.90764363e+03	7.11718284e+00
103             	1.35201951e+01	4.90630888e+03	7.10541932e+00
104             	1.33228180e+01	4.90441365e+03	7.09040150e+00
105             	1.31534100e+01	4.90276411e+03	7.07213840e+00
106             	1.29471025e+01	4.90072074e+03	7.05050372e+00
107             	1.28836902e+01	4.89860358e+03	7.02556631e+00
108             	1.28768800e+01	4.89673747e+03	6.99823627e+00
109             	1.28903069e+01	4.89430459e+03	6.96811821e+00
110             	1.29240027e+01	4.89226808e+03	6.93541576e+00
111             	1.29760124e+01	4.88979870e+03	6.89935812e+00
112             	1.30474924e+01	4.88775451e+03	6.85998339e+00
113             	1.30914315e+01	4.88540265e+03	6.81738983e+00
114             	1.32131484e+01	4.88290850e+03	6.77157940e+00
115             	1.33464080e+01	4.88069145e+03	6.72264615e+00
116             	1.34893836e+01	4.87833706e+03	6.67066997e+00
117             	1.36525145e+01	4.87596786e+03	6.61573873e+00
118             	1.38407434e+01	4.87345888e+03	6.55795218e+00
119             	1.40507946e+01	4.87125271e+03	6.49741735e+00
120             	1.42805780e+01	4.86901729e+03	6.43425077e+00
121             	1.45356011e+01	4.86673297e+03	6.36870691e+00
122             	1.48603181e+01	4.86413913e+03	6.30074829e+00
123             	1.50917956e+01	4.86181018e+03	6.23049976e+00
124             	1.54230425e+01	4.85882576e+03	6.15821635e+00
125             	1.57283828e+01	4.85627562e+03	6.08683403e+00
126             	1.60415319e+01	4.85378352e+03	6.01386153e+00
127             	1.63606813e+01	4.85154675e+03	5.93943098e+00
128             	1.66848352e+01	4.84944290e+03	5.86367032e+00
129             	1.70077671e+01	4.84721503e+03	5.78669419e+00
130             	1.73224143e+01	4.84480427e+03	5.70861228e+00
131             	1.76292369e+01	4.84264547e+03	5.62953092e+00
132             	1.79301583e+01	4.84040515e+03	5.54960487e+00
133             	1.82213963e+01	4.83798905e+03	5.47045326e+00
134             	1.85033668e+01	4.83568505e+03	5.39208271e+00
135             	1.87628889e+01	4.83344876e+03	5.31316348e+00
136             	1.90308666e+01	4.83105350e+03	5.23422494e+00
137             	1.92686337e+01	4.82896460e+03	5.20869146e+00
138             	1.94868283e+01	4.82642876e+03	5.23101851e+00
139             	1.96976453e+01	4.82381974e+03	5.25444145e+00
140             	1.98925850e+01	4.82147986e+03	5.27729608e+00
141             	2.00654217e+01	4.81905617e+03	5.30081073e+00
142             	2.02153417e+01	4.81659997e+03	5.32389520e+00
143             	2.03648838e+01	4.81429301e+03	5.34697322e+00
144             	2.04774764e+01	4.81155202e+03	5.36979867e+00
145             	2.05938674e+01	4.80895304e+03	5.39216062e+00
146             	2.06484464e+01	4.80659732e+03	5.41431220e+00
147             	2.07409861e+01	4.80381213e+03	5.43569582e+00
148             	2.07875785e+01	4.80116017e+03	5.45679972e+00
149             	2.07841780e+01	4.79857842e+03	5.47704404e+00
150             	2.08271497e+01	4.79601796e+03	5.49679339e+00
151             	2.07970665e+01	4.79377115e+03	5.51559851e+00
152             	2.07848391e+01	4.79096352e+03	5.53369814e+00
153             	2.07312454e+01	4.78863007e+03	5.55083310e+00
154             	2.06824012e+01	4.78599316e+03	5.56703682e+00
155             	2.05895225e+01	4.78339280e+03	5.58230550e+00
156             	2.05139287e+01	4.78068028e+03	5.59642162e+00
157             	2.03819346e+01	4.77820539e+03	5.60963652e+00
158             	2.02407490e+01	4.77550582e+03	5.62153122e+00
159             	2.01143998e+01	4.77290190e+03	5.63254553e+00
160             	1.99390229e+01	4.76996487e+03	5.64211369e+00
161             	1.97569834e+01	4.76706751e+03	5.65081171e+00
162             	1.95594711e+01	4.76457587e+03	5.65798006e+00
163             	1.93426217e+01	4.76163306e+03	5.66424098e+00
164             	1.91292183e+01	4.75847246e+03	5.66894453e+00
165             	1.89005087e+01	4.75590220e+03	5.67266524e+00
166             	1.86649936e+01	4.75278742e+03	5.67488830e+00
167             	1.84335004e+01	4.74962536e+03	5.67597333e+00
168             	1.81948234e+01	4.74687794e+03	5.67572509e+00
169             	1.80045023e+01	4.74394522e+03	5.67414610e+00
170             	1.77785434e+01	4.74149464e+03	5.67149968e+00
171             	1.74939236e+01	4.73857469e+03	5.66718771e+00
172             	1.73195538e+01	4.73670544e+03	5.66218486e+00
173             	1.70717166e+01	4.73490239e+03	5.65530603e+00
174             	1.68758545e+01	4.73327121e+03	5.64786347e+00
175             	1.66896561e+01	4.73143451e+03	5.63886177e+00
176             	1.65147208e+01	4.72958822e+03	5.62867906e+00
177             	1.63538890e+01	4.72769295e+03	5.61770879e+00
178             	1.62174630e+01	4.72591346e+03	5.60528793e+00
179             	1.60861148e+01	4.72417983e+03	5.59205604e+00
180             	1.59876400e+01	4.72247386e+03	5.57802066e+00
181             	1.59020197e+01	4.72072592e+03	5.56288058e+00
182             	1.58437877e+01	4.71900213e+03	5.54679982e+00
183             	1.58008579e+01	4.71734030e+03	5.53041228e+00
184             	1.57777005e+01	4.71570941e+03	5.51335279e+00
185             	1.57746135e+01	4.71415605e+03	5.49574281e+00
186             	1.57881086e+01	4.71271870e+03	5.47776652e+00
187             	1.58182970e+01	4.71127452e+03	5.45960296e+00
188             	1.58636993e+01	4.70985573e+03	5.44142974e+00
189             	1.59345118e+01	4.70840389e+03	5.42341547e+00
190             	1.59987415e+01	4.70697747e+03	5.40573534e+00
191             	1.60716104e+01	4.70551353e+03	5.38875932e+00
192             	1.61523612e+01	4.70419340e+03	5.37278870e+00
193             	1.62389525e+01	4.70301917e+03	5.35766703e+00
194             	1.63281827e+01	4.70182980e+03	5.34413704e+00
195             	1.64140157e+01	4.70057429e+03	5.33182032e+00
196             	1.65075382e+01	4.69933831e+03	5.32135046e+00
197             	1.66066331e+01	4.69827710e+03	5.31219531e+00
198             	1.66927463e+01	4.69710373e+03	5.30493878e+00
199             	1.67825068e+01	4.69587568e+03	5.29895728e+00
200             	1.68609730e+01	4.69487763e+03	5.29447331e+00
201             	1.69468064e+01	4.69389650e+03	5.29136814e+00
202             	1.70216637e+01	4.69292628e+03	5.28926840e+00
203             	1.71003327e+01	4.69204720e+03	5.28810540e+00
204             	1.71677255e+01	4.69116675e+03	5.28812581e+00
205             	1.72377741e+01	4.69032337e+03	5.28891780e+00
206             	1.72996783e+01	4.68943892e+03	5.29035743e+00
207             	1.73569899e+01	4.68864826e+03	5.29236477e+00
208             	1.73955837e+01	4.68783946e+03	5.29485733e+00
209             	1.74381102e+01	4.68709002e+03	5.29776103e+00
210             	1.74735708e+01	4.68641115e+03	5.30100939e+00
211             	1.75123705e+01	4.68567163e+03	5.30453192e+00
212             	1.75337173e+01	4.68488972e+03	5.30826341e+00
213             	1.75498790e+01	4.68422131e+03	5.31213688e+00
214             	1.75594251e+01	4.68349464e+03	5.31609120e+00
215             	1.75679600e+01	4.68287660e+03	5.32007084e+00
216             	1.75682886e+01	4.68224666e+03	5.32402658e+00
217             	1.75668477e+01	4.68158586e+03	5.32809027e+00
218             	1.75547991e+01	4.68097863e+03	5.33216953e+00
219             	1.75418554e+01	4.68038626e+03	5.33610739e+00
220             	1.75209807e+01	4.67980661e+03	5.33986555e+00
221             	1.75004622e+01	4.67922407e+03	5.34340452e+00
222             	1.74709876e+01	4.67872456e+03	5.34669643e+00
223             	1.74375054e+01	4.67820543e+03	5.34970602e+00
224             	1.74059500e+01	4.67769745e+03	5.35241303e+00
225             	1.73749380e+01	4.67720144e+03	5.35518671e+00
226             	1.73365127e+01	4.67673911e+03	5.35763050e+00
227             	1.72968048e+01	4.67625008e+03	5.35972727e+00
228             	1.72565234e+01	4.67581709e+03	5.36146873e+00
229             	1.72158613e+01	4.67542474e+03	5.36284879e+00
230             	1.71747825e+01	4.67496612e+03	5.36386729e+00
231             	1.71339245e+01	4.67457579e+03	5.36452920e+00
232             	1.70928938e+01	4.67418191e+03	5.36516702e+00
233             	1.70522728e+01	4.67373321e+03	5.36546992e+00
234             	1.70114601e+01	4.67337800e+03	5.36542760e+00
235             	1.69727702e+01	4.67303763e+03	5.36505011e+00
236             	1.69382420e+01	4.67264865e+03	5.36435254e+00
237             	1.69080736e+01	4.67232641e+03	5.36335374e+00
238             	1.68802798e+01	4.67203034e+03	5.36207358e+00
239             	1.68461778e+01	4.67165630e+03	5.36052928e+00
240             	1.68256410e+01	4.67133270e+03	5.35874654e+00
241             	1.68030460e+01	4.67102924e+03	5.35688017e+00
242             	1.67788160e+01	4.67076709e+03	5.35485025e+00
243             	1.67633034e+01	4.67046372e+03	5.35262947e+00
244             	1.67526261e+01	4.67014230e+03	5.35024743e+00
245             	1.67412504e+01	4.66988985e+03	5.34773080e+00
246             	1.67283322e+01	4.66966175e+03	5.34510437e+00
247             	1.67239019e+01	4.66936715e+03	5.34239641e+00
248             	1.67196153e+01	4.66911585e+03	5.33963340e+00
249             	1.67188247e+01	4.66891656e+03	5.33684153e+00
250             	1.67203234e+01	4.66865743e+03	5.33404679e+00
251             	1.67233967e+01	4.66842299e+03	5.33127446e+00
252             	1.67298243e+01	4.66821694e+03	5.32854454e+00
253             	1.67356228e+01	4.66796866e+03	5.32587897e+00
254             	1.67441153e+01	4.66777076e+03	5.32329882e+00
255             	1.67549826e+01	4.66758816e+03	5.32081860e+00
256             	1.67649025e+01	4.66736924e+03	5.31845365e+00
257             	1.67786695e+01	4.66717877e+03	5.31621773e+00
258             	1.67901758e+01	4.66700575e+03	5.31412182e+00
259             	1.68029270e+01	4.66678550e+03	5.31217366e+00
260             	1.68184991e+01	4.66663760e+03	5.31037808e+00
261             	1.68338644e+01	4.66649359e+03	5.30874286e+00
262             	1.68470080e+01	4.66628674e+03	5.30726838e+00
