# vtk DataFile Version 2.0
tracks
ASCII
DATASET POLYDATA
POINTS 12040 float
-0.0206 0.000999959 1e-05 -0.02058 0.000999961 1e-05 -0.02056 0.000999967 1e-05 -0.02054 0.000999975
1e-05 -0.02052 0.000999986 1e-05 -0.0205 0.001 1e-05 -0.0202034 0.0010002 1e-05
-0.0199069 0.00100071 1e-05 -0.0196103 0.00100149 1e-05 -0.0193138 0.00100255 1e-05 -0.0190172
0.00100389 1e-05 -0.0187133 0.00100545 1e-05 -0.0184094 0.00100701 1e-05 -0.0181054 0.00100856
1e-05 -0.0178015 0.00101011 1e-05 -0.0174976 0.00101166 1e-05 -0.0172058 0.00101315 1e-05
-0.016914 0.00101462 1e-05 -0.0166223 0.00101608 1e-05 -0.0163305 0.00101753 1e-05 -0.0160387
0.00101897 1e-05 -0.0157586 0.00102036 1e-05 -0.0154785 0.00102174 1e-05 -0.0151983 0.00102312
1e-05 -0.0149182 0.0010245 1e-05 -0.0146381 0.00102589 1e-05 -0.0146006 0.00102608 1e-05
-0.0145632 0.00102626 1e-05 -0.0145257 0.00102645 1e-05 -0.0144882 0.00102663 1e-05 -0.0144508
0.00102682 1e-05 -0.0142193 0.00102797 1e-05 -0.0139879 0.00102912 1e-05 -0.0137564 0.00103027
1e-05 -0.0135249 0.00103143 1e-05 -0.0132934 0.00103258 1e-05 -0.0130352 0.00103387 1e-05
-0.012777 0.00103516 1e-05 -0.0125189 0.00103645 1e-05 -0.0122607 0.00103773 1e-05 -0.0120025
0.00103902 1e-05 -0.0117546 0.00104025 1e-05 -0.0115068 0.00104148 1e-05 -0.0112589 0.00104271
1e-05 -0.0110111 0.00104394 1e-05 -0.0107632 0.00104517 1e-05 -0.0105252 0.00104634 1e-05
-0.0102873 0.00104751 1e-05 -0.0100493 0.00104868 1e-05 -0.00981134 0.00104985 1e-05 -0.00957337
0.00105101 1e-05 -0.00934491 0.00105212 1e-05 -0.00911645 0.00105323 1e-05 -0.008888 0.00105434
1e-05 -0.00865954 0.00105545 1e-05 -0.00843108 0.00105655 1e-05 -0.00821175 0.0010576 1e-05
-0.00799242 0.00105865 1e-05 -0.00777309 0.0010597 1e-05 -0.00755376 0.00106075 1e-05 -0.00733443
0.00106179 1e-05 -0.00712386 0.00106279 1e-05 -0.0069133 0.00106378 1e-05 -0.00670273 0.00106477
1e-05 -0.00649217 0.00106576 1e-05 -0.0062816 0.00106675 1e-05 -0.00607945 0.00106768 1e-05
-0.00587729 0.00106862 1e-05 -0.00567514 0.00106956 1e-05 -0.00547298 0.00107049 1e-05 -0.00527083
0.00107143 1e-05 -0.00507675 0.00107231 1e-05 -0.00488267 0.0010732 1e-05 -0.0046886 0.00107408
1e-05 -0.00449452 0.00107497 1e-05 -0.00430044 0.00107585 1e-05 -0.00411412 0.00107668 1e-05
-0.0039278 0.00107752 1e-05 -0.00374147 0.00107836 1e-05 -0.00355515 0.00107919 1e-05 -0.00336883
0.00108002 1e-05 -0.00318995 0.00108081 1e-05 -0.00301107 0.0010816 1e-05 -0.00283219 0.0010824
1e-05 -0.00265331 0.00108318 1e-05 -0.00247443 0.00108397 1e-05 -0.0023027 0.00108472 1e-05
-0.00213097 0.00108547 1e-05 -0.00195923 0.00108622 1e-05 -0.0017875 0.00108697 1e-05 -0.00161577
0.00108771 1e-05 -0.0014509 0.00108842 1e-05 -0.00128603 0.00108914 1e-05 -0.00112116 0.00108985
1e-05 -0.000956288 0.00109056 1e-05 -0.000791418 0.00109127 1e-05 -0.000633134 0.00109195 1e-05
-0.000474851 0.00109263 1e-05 -0.000316567 0.00109331 1e-05 -0.000158284 0.00109398 1e-05 0
0.00109465 1e-05 0.000105677 0.0010951 1e-05 0.000211355 0.00109554 1e-05 0.000317032 0.00109599
1e-05 0.00042271 0.00109643 1e-05 0.000528387 0.00109688 1e-05 0.000634886 0.00109732 1e-05
0.000741384 0.00109778 1e-05 0.000847883 0.00109823 1e-05 0.000954381 0.0010987 1e-05 0.00106088
0.00109917 1e-05 0.00116821 0.00109964 1e-05 0.00127554 0.00110013 1e-05 0.00138286 0.00110062
1e-05 0.00149019 0.00110111 1e-05 0.00159752 0.00110161 1e-05 0.00170568 0.00110212 1e-05
0.00181384 0.00110263 1e-05 0.00192201 0.00110314 1e-05 0.00203017 0.00110364 1e-05 0.00213833
0.00110415 1e-05 0.00224733 0.00110466 1e-05 0.00235633 0.00110517 1e-05 0.00246534 0.00110568
1e-05 0.00257434 0.00110618 1e-05 0.00268334 0.00110667 1e-05 0.00279319 0.00110717 1e-05
0.00290304 0.00110766 1e-05 0.00301289 0.00110814 1e-05 0.00312274 0.00110861 1e-05 0.00323259
0.00110908 1e-05 0.00334329 0.00110954 1e-05 0.003454 0.00110999 1e-05 0.0035647 0.00111044
1e-05 0.00367541 0.00111087 1e-05 0.00378611 0.00111129 1e-05 0.00389767 0.00111171 1e-05
0.00400924 0.00111212 1e-05 0.0041208 0.00111252 1e-05 0.00423237 0.0011129 1e-05 0.00434393
0.00111328 1e-05 0.00445636 0.00111365 1e-05 0.00456879 0.00111401 1e-05 0.00468123 0.00111436
1e-05 0.00479366 0.0011147 1e-05 0.00490609 0.00111503 1e-05 0.0050194 0.00111535 1e-05
0.0051327 0.00111567 1e-05 0.00524601 0.00111597 1e-05 0.00535931 0.00111627 1e-05 0.00547262
0.00111656 1e-05 0.00558681 0.00111684 1e-05 0.005701 0.00111711 1e-05 0.00581518 0.00111738
1e-05 0.00592937 0.00111764 1e-05 0.00604356 0.00111789 1e-05 0.00615863 0.00111813 1e-05
0.00627371 0.00111836 1e-05 0.00638878 0.00111859 1e-05 0.00650386 0.00111881 1e-05 0.00661893
0.00111902 1e-05 0.0067349 0.00111922 1e-05 0.00685087 0.00111941 1e-05 0.00696684 0.0011196
1e-05 0.00708281 0.00111978 1e-05 0.00719878 0.00111995 1e-05 0.00731565 0.00112012 1e-05
0.00743252 0.00112027 1e-05 0.00754939 0.00112042 1e-05 0.00766626 0.00112057 1e-05 0.00778313
0.0011207 1e-05 0.00787406 0.0011208 1e-05 0.00796499 0.00112089 1e-05 0.00805593 0.00112098
1e-05 0.00814686 0.00112106 1e-05 0.00823354 0.00112113 1e-05 0.00826124 0.00112116 1e-05
0.00828894 0.00112118 1e-05 0.00831663 0.0011212 1e-05 0.00834433 0.00112122 1e-05 0.00837203
0.00112124 1e-05 0.00849073 0.00112133 1e-05 0.00860942 0.00112141 1e-05 0.00872812 0.00112148
1e-05 0.00884681 0.00112154 1e-05 0.00896551 0.0011216 1e-05 0.00908513 0.00112164 1e-05
0.00920475 0.00112168 1e-05 0.00932436 0.00112171 1e-05 0.00944398 0.00112173 1e-05 0.0095636
0.00112175 1e-05 0.00968414 0.00112175 1e-05 0.00980468 0.00112174 1e-05 0.00992522 0.00112173
1e-05 0.0100458 0.00112171 1e-05 0.0101663 0.00112169 1e-05 0.0102878 0.00112164 1e-05
0.0104093 0.0011216 1e-05 0.0105308 0.00112154 1e-05 0.0106523 0.00112148 1e-05 0.0107738
0.00112141 1e-05 0.0108962 0.00112132 1e-05 0.0110186 0.00112123 1e-05 0.0111411 0.00112113
1e-05 0.0112635 0.00112103 1e-05 0.0113859 0.00112092 1e-05 0.0115093 0.00112078 1e-05
0.0116327 0.00112065 1e-05 0.011756 0.0011205 1e-05 0.0118794 0.00112035 1e-05 0.0120028
0.00112019 1e-05 0.0121271 0.00112001 1e-05 0.0122515 0.00111983 1e-05 0.0123758 0.00111964
1e-05 0.0125002 0.00111945 1e-05 0.0126245 0.00111924 1e-05 0.0127498 0.00111901 1e-05
0.0128751 0.00111879 1e-05 0.0130005 0.00111855 1e-05 0.0131258 0.00111831 1e-05 0.0132511
0.00111805 1e-05 0.0133774 0.00111778 1e-05 0.0135037 0.0011175 1e-05 0.0136299 0.00111722
1e-05 0.0137562 0.00111693 1e-05 0.0138825 0.00111663 1e-05 0.0140098 0.0011163 1e-05
0.014137 0.00111597 1e-05 0.0142643 0.00111564 1e-05 0.0143915 0.0011153 1e-05 0.0145188
0.00111495 1e-05 0.0146471 0.00111457 1e-05 0.0147753 0.0011142 1e-05 0.0149036 0.00111381
1e-05 0.0150318 0.00111342 1e-05 0.0151601 0.00111302 1e-05 0.0152893 0.00111259 1e-05
0.0154186 0.00111217 1e-05 0.0155478 0.00111173 1e-05 0.0156771 0.00111129 1e-05 0.0158063
0.00111083 1e-05 0.0159366 0.00111035 1e-05 0.0160668 0.00110988 1e-05 0.0161971 0.00110939
1e-05 0.0163273 0.00110889 1e-05 0.0164576 0.00110838 1e-05 0.0165889 0.00110785 1e-05
0.0167201 0.00110732 1e-05 0.0168514 0.00110678 1e-05 0.0169826 0.00110623 1e-05 0.0171139
0.00110567 1e-05 0.0172462 0.00110509 1e-05 0.0173785 0.00110451 1e-05 0.0175108 0.00110391
1e-05 0.0176431 0.00110331 1e-05 0.0177754 0.00110269 1e-05 0.0179087 0.00110206 1e-05
0.018042 0.00110142 1e-05 0.0181754 0.00110077 1e-05 0.0183087 0.00110012 1e-05 0.018442
0.00109945 1e-05 0.0185763 0.00109877 1e-05 0.0187107 0.00109807 1e-05 0.018845 0.00109737
1e-05 0.0189794 0.00109665 1e-05 0.0191137 0.00109593 1e-05 0.0192491 0.0010952 1e-05
0.0193845 0.00109445 1e-05 0.0195199 0.00109369 1e-05 0.0196553 0.00109292 1e-05 0.0197907
0.00109215 1e-05 0.0199272 0.00109136 1e-05 0.0200636 0.00109056 1e-05 0.0202001 0.00108975
1e-05 0.0203365 0.00108892 1e-05 0.020473 0.00108809 1e-05 0.0206105 0.00108725 1e-05
0.020748 0.0010864 1e-05 0.0208856 0.00108553 1e-05 0.0210231 0.00108465 1e-05 0.0211606
0.00108376 1e-05 0.0212992 0.00108287 1e-05 0.0214378 0.00108196 1e-05 0.0215763 0.00108104
1e-05 0.0217149 0.0010801 1e-05 0.0218535 0.00107916 1e-05 0.0219931 0.00107822 1e-05
0.0221328 0.00107726 1e-05 0.0222724 0.00107627 1e-05 0.0224121 0.00107528 1e-05 0.0225517
0.00107429 1e-05 0.0226925 0.00107329 1e-05 0.0228332 0.00107227 1e-05 0.022974 0.00107123
1e-05 0.0231147 0.00107019 1e-05 0.0232555 0.00106914 1e-05 0.0233973 0.00106809 1e-05
0.0235392 0.00106702 1e-05 0.023681 0.00106592 1e-05 0.0238229 0.00106482 1e-05 0.0239647
0.00106372 1e-05 0.0241076 0.00106261 1e-05 0.0242506 0.00106148 1e-05 0.0243935 0.00106033
1e-05 0.0245365 0.00105917 1e-05 0.0246794 0.00105801 1e-05 0.0248234 0.00105685 1e-05
0.0249675 0.00105567 1e-05 0.0251115 0.00105446 1e-05 0.0252556 0.00105324 1e-05 0.0253996
0.00105203 1e-05 0.0255448 0.00105081 1e-05 0.02569 0.00104957 1e-05 0.0258351 0.00104831
1e-05 0.0259803 0.00104703 1e-05 0.0261255 0.00104576 1e-05 0.0262718 0.00104449 1e-05
0.0264181 0.00104319 1e-05 0.0265644 0.00104187 1e-05 0.0267107 0.00104054 1e-05 0.026857
0.00103921 1e-05 0.0270044 0.00103788 1e-05 0.0271519 0.00103652 1e-05 0.0272993 0.00103514
1e-05 0.0274468 0.00103376 1e-05 0.0275942 0.00103237 1e-05 0.0277428 0.00103098 1e-05
0.0278914 0.00102956 1e-05 0.0280399 0.00102813 1e-05 0.0281885 0.00102668 1e-05 0.0283371
0.00102524 1e-05 0.0284868 0.00102379 1e-05 0.0286366 0.00102231 1e-05 0.0287863 0.00102082
1e-05 0.0289361 0.00101931 1e-05 0.0290858 0.00101781 1e-05 0.0292367 0.0010163 1e-05
0.0293876 0.00101476 1e-05 0.0295385 0.0010132 1e-05 0.0296894 0.00101164 1e-05 0.0298403
0.00101007 1e-05 0.0299924 0.0010085 1e-05 0.0301445 0.0010069 1e-05 0.0302965 0.00100528
1e-05 0.0304486 0.00100366 1e-05 0.0306007 0.00100203 1e-05 0.030754 0.00100039 1e-05
0.0309072 0.00099872 1e-05 0.0310605 0.000997043 1e-05 0.0312137 0.000995356 1e-05 0.031367
0.00099366 1e-05 0.0315215 0.000991954 1e-05 0.0316759 0.000990222 1e-05 0.0318304 0.000988481
1e-05 0.0319848 0.000986729 1e-05 0.0321393 0.000984967 1e-05 0.0322949 0.000983194 1e-05
0.0324506 0.000981396 1e-05 0.0326062 0.000979588 1e-05 0.0327619 0.00097777 1e-05 0.0329175
[...]
POINT_DATA 12040
FIELD attributes 4
age 1 12040 float
-9.999e-06 -7.99907e-06 -5.9992e-06 -3.9994e-06 -1.99967e-06 0 2.9651e-05 5.92887e-05 8.89131e-05 0.000118524 0.000148122
0.000178445 0.000208757 0.000239061 0.000269358 0.000299647 0.000328725 0.000357799 0.000386873 0.000415947 0.000445021
0.000472936 0.000500851 0.00052877 0.000556691 0.000584615 0.00058835 0.000592085 0.00059582 0.000599556 0.000603286
0.000626367 0.00064945 0.000672536 0.000695624 0.000718715 0.000744472 0.000770233 0.000795997 0.000821766 0.000847539
0.000872286 0.000897036 0.000921791 0.00094655 0.000971314 0.000995095 0.00101888 0.00104267 0.00106646 0.00109025
0.00111311 0.00113596 0.00115882 0.00118169 0.00120455 0.00122652 0.00124848 0.00127045 0.00129242 0.0013144
0.0013355 0.00135661 0.00137772 0.00139884 0.00141996 0.00144024 0.00146053 0.00148081 0.00150111 0.0015214
0.0015409 0.00156039 0.00157989 0.00159939 0.0016189 0.00163764 0.00165637 0.00167511 0.00169385 0.0017126
0.00173061 0.00174861 0.00176662 0.00178463 0.00180264 0.00181995 0.00183725 0.00185455 0.00187186 0.00188917
0.00190581 0.00192244 0.00193906 0.0019557 0.00197233 0.00198832 0.0020043 0.00202027 0.00203625 0.00205224
0.00206292 0.00207359 0.00208427 0.00209495 0.00210563 0.0021164 0.00212716 0.00213793 0.0021487 0.00215947
0.00217034 0.00218119 0.00219205 0.00220291 0.00221377 0.00222472 0.00223567 0.00224662 0.00225756 0.00226851
0.00227956 0.00229059 0.00230163 0.00231267 0.00232371 0.00233484 0.00234597 0.0023571 0.00236823 0.00237936
0.00239059 0.00240181 0.00241303 0.00242426 0.00243548 0.00244681 0.00245812 0.00246944 0.00248077 0.00249209
0.00250352 0.00251493 0.00252636 0.00253778 0.00254921 0.00256074 0.00257226 0.00258379 0.00259532 0.00260685
0.00261849 0.00263012 0.00264175 0.00265339 0.00266504 0.00267678 0.00268853 0.00270027 0.00271203 0.00272378
0.00273564 0.0027475 0.00275937 0.00277124 0.00278311 0.00279509 0.00280707 0.00281905 0.00283104 0.00284304
0.00285238 0.00286173 0.00287107 0.00288043 0.00288934 0.00289219 0.00289505 0.0028979 0.00290075 0.0029036
0.00291583 0.00292806 0.0029403 0.00295255 0.0029648 0.00297717 0.00298954 0.00300191 0.00301429 0.00302668
0.0030392 0.0030517 0.00306421 0.00307674 0.00308927 0.00310193 0.00311458 0.00312724 0.00313991 0.00315259
0.00316541 0.00317821 0.00319101 0.00320383 0.00321666 0.00322964 0.00324259 0.00325555 0.00326853 0.00328151
0.00329465 0.00330776 0.00332089 0.00333402 0.00334716 0.00336048 0.00337375 0.00338704 0.00340034 0.00341365
0.00342714 0.00344058 0.00345404 0.00346751 0.00348099 0.00349465 0.00350827 0.0035219 0.00353554 0.0035492
0.00356304 0.00357684 0.00359065 0.00360447 0.00361831 0.00363234 0.00364632 0.00366031 0.00367431 0.00368834
0.00370256 0.00371673 0.00373091 0.0037451 0.00375932 0.00377374 0.0037881 0.00380247 0.00381685 0.00383127
0.00384588 0.00386045 0.00387502 0.0038896 0.00390422 0.00391903 0.0039338 0.00394856 0.00396334 0.00397816
0.00399317 0.00400814 0.00402311 0.00403808 0.00405311 0.00406833 0.00408351 0.00409868 0.00411386 0.0041291
0.00414452 0.00415992 0.0041753 0.00419069 0.00420614 0.00422177 0.00423738 0.00425297 0.00426858 0.00428424
0.00430008 0.00431591 0.00433171 0.00434754 0.00436341 0.00437947 0.00439551 0.00441153 0.00442757 0.00444367
0.00445994 0.0044762 0.00449245 0.00450872 0.00452504 0.00454153 0.00455801 0.00457448 0.00459097 0.00460751
0.00462422 0.00464092 0.00465762 0.00467433 0.00469109 0.00470803 0.00472496 0.00474188 0.00475881 0.0047758
0.00479296 0.00481012 0.00482727 0.00484444 0.00486165 0.00487904 0.00489642 0.0049138 0.0049312 0.00494864
0.00496626 0.00498387 0.00500149 0.00501912 0.00503679 0.00505463 0.00507248 0.00509033 0.0051082 0.0051261
0.00514417 0.00516225 0.00518034 0.00519844 0.00521657 0.00523488 0.0052532 0.00527152 0.00528986 0.00530823
0.00532677 0.00534532 0.00536388 0.00538247 0.00540107 0.00541985 0.00543863 0.00545744 0.00547626 0.0054951
0.00551412 0.00553314 0.00555219 0.00557125 0.00559033 0.00560959 0.00562885 0.00564814 0.00566744 0.00568676
0.00570626 0.00572578 0.00574531 0.00576486 0.00578443 0.00580417 0.00582393 0.0058437 0.00586349 0.0058833
0.00590329 0.00592329 0.00594331 0.00596335 0.0059834 0.00599871 0.00601403 0.00602937 0.00604471 0.00605959
0.00606462 0.00606966 0.0060747 0.00607974 0.00608478 0.00610526 0.00612576 0.00614628 0.00616682 0.00618738
0.00620811 0.00622887 0.00624964 0.00627043 0.00629124 0.00631224 0.00633325 0.00635428 0.00637534 0.00639641
0.00641766 0.00643892 0.00646021 0.00648152 0.00650285 0.00652436 0.00654588 0.00656743 0.006589 0.00661058
0.00663235 0.00665414 0.00667595 0.00669778 0.00671963 0.00674166 0.00676372 0.00678579 0.00680789 0.00683
0.0068523 0.00687462 0.00689696 0.00691932 0.0069417 0.00696427 0.00698686 0.00700946 0.0070321 0.00705474
0.00707758 0.00710043 0.00712331 0.00714621 0.00716913 0.00719224 0.00721537 0.00723853 0.0072617 0.0072849
0.00730828 0.00733169 0.00735512 0.00737857 0.00740204 0.0074257 0.00744939 0.0074731 0.00749683 0.00752058
0.00754453 0.0075685 0.00759249 0.00761651 0.00764054 0.00766477 0.00768902 0.0077133 0.0077376 0.00776192
0.00778644 0.00781098 0.00783556 0.00786014 0.00788475 0.00790956 0.0079344 0.00795926 0.00798414 0.00800904
0.00803415 0.00805928 0.00808444 0.00810962 0.00813481 0.00816022 0.00818566 0.00821112 0.00823659 0.00826209
0.00828781 0.00831355 0.00833931 0.00836509 0.00839089 0.00841692 0.00844297 0.00846904 0.00849514 0.00852125
0.00854759 0.00857395 0.00860033 0.00862674 0.00865317 0.00867729 0.00870142 0.00872558 0.00874976 0.00877255
0.00877538 0.00877821 0.00878104 0.00878387 0.0087867 0.00881368 0.00884069 0.00886772 0.00889477 0.00892185
0.00894916 0.00897649 0.00900386 0.00903124 0.00905866 0.00908631 0.00911399 0.00914169 0.00916942 0.00919718
0.00922517 0.00925319 0.00928124 0.00930931 0.00933742 0.00936576 0.00939413 0.00942253 0.00945096 0.00947942
0.00950811 0.00953683 0.00956559 0.00959438 0.0096232 0.00965225 0.00968135 0.00971048 0.00973964 0.00976883
0.00979825 0.00982771 0.00985721 0.00988674 0.0099163 0.0099461 0.00997594 0.0100058 0.0100357 0.0100657
0.0100959 0.0101261 0.0101564 0.0101867 0.010217 0.0102476 0.0102782 0.0103089 0.0103396 0.0103703
0.0104013 0.0104324 0.0104634 0.0104945 0.0105257 0.0105571 0.0105886 0.01062 0.0106516 0.0106831
0.010715 0.0107468 0.0107788 0.0108107 0.0108427 0.0108531 0.0108635 0.010874 0.0108844 0.0108946
0.0109165 0.0109385 0.0109605 0.0109825 0.0110045 0.0110373 0.01107 0.0111029 0.0111357 0.0111686
0.0112018 0.0112351 0.0112684 0.0113017 0.0113351 0.0113688 0.0114025 0.0114363 0.0114701 0.011504
0.0115382 0.0115724 0.0116067 0.0116411 0.0116755 0.0117102 0.0117449 0.0117797 0.0118146 0.0118495
0.0118847 0.01192 0.0119554 0.0119908 0.0120263 0.012062 0.0120979 0.0121338 0.0121698 0.0122058
0.0122421 0.0122786 0.012315 0.0123516 0.0123882 0.0124134 0.0124386 0.0124639 0.0124892 0.0125132
0.0125253 0.0125374 0.0125494 0.0125615 0.0125736 0.0126112 0.0126488 0.0126865 0.0127242 0.012762
0.0128002 0.0128384 0.0128767 0.0129151 0.0129536 0.0129924 0.0130313 0.0130702 0.0131092 0.0131483
0.0131878 0.0132274 0.013267 0.0133067 0.0133465 0.0133867 0.0134269 0.0134672 0.0135077 0.0135482
0.0135891 0.01363 0.0136711 0.0137123 0.0137535 0.0137952 0.0138369 0.0138787 0.0139207 0.0139627
0.0139644 0.0139662 0.0139679 0.0139696 0.0139714 0.0140121 0.0140529 0.0140938 0.0141347 0.0141758
0.0142191 0.0142624 0.0143058 0.0143494 0.014393 0.0144371 0.0144813 0.0145256 0.01457 0.0146145
0.0146595 0.0147046 0.0147497 0.014795 0.0148405 0.0148864 0.0149324 0.0149785 0.0150247 0.0150711
0.015118 0.0151649 0.015212 0.0152593 0.0153067 0.0153147 0.0153227 0.0153308 0.0153388 0.0153468
0.0153867 0.0154268 0.0154669 0.0155071 0.0155475 0.0155964 0.0156455 0.0156947 0.015744 0.0157935
0.0158435 0.0158936 0.0159439 0.0159944 0.016045 0.0160962 0.0161475 0.016199 0.0162507 0.0163025
0.0163549 0.0164075 0.0164602 0.0165131 0.0165662 0.0165904 0.0166146 0.0166389 0.0166632 0.0166869
0.0167167 0.0167467 0.0167767 0.0168067 0.0168368 0.0168918 0.016947 0.0170023 0.0170579 0.0171137
0.0171701 0.0172267 0.0172836 0.0173406 0.017398 0.0174558 0.0175139 0.0175722 0.0176307 0.0176895
0.017749 0.0178087 0.0178686 0.0179288 0.0179893 0.0179966 0.0180038 0.0180111 0.0180184 0.0180256
0.0180796 0.0181338 0.0181881 0.0182427 0.0182975 0.0183603 0.0184234 0.0184868 0.0185504 0.0186143
0.018679 0.0187439 0.0188092 0.0188746 0.0189405 0.0190071 0.019074 0.0191412 0.0192086 0.0192765
0.0192995 0.0193225 0.0193455 0.0193686 0.0193913 0.0194374 0.0194836 0.01953 0.0195766 0.0196233
0.019694 0.0197651 0.0198366 0.0199083 0.0199805 0.0200535 0.0201268 0.0202005 0.0202746 0.0203491
0.0204245 0.0205003 0.0205765 0.020653 0.0207301 0.0207461 0.0207621 0.0207781 0.0207942 0.0208101
0.0208724 0.0209349 0.0209977 0.0210607 0.0211241 0.0212047 0.0212857 0.0213671 0.0214489 0.0215313
0.0216146 0.0216984 0.0217826 0.0218672 0.0219524 0.0220237 0.0220953 0.0221672 0.0222394 0.0223094
0.0223253 0.0223412 0.0223572 0.0223731 0.022389 0.0224784 0.0225682 0.0226585 0.0227493 0.0228407
0.0229333 0.0230264 0.02312 0.0232141 0.0233089 0.0234048 0.0235013 0.0235983 0.0236959 0.0237941
0.0238192 0.0238444 0.0238697 0.023895 0.02392 0.023995 0.0240703 0.0241459 0.0242219 0.0242982
0.0244014 0.0245052 0.0246096 0.0247146 0.0248203 0.0249273 0.025035 0.0251433 0.0252522 0.0253618
0.0254248 0.0254881 0.0255515 0.0256151 0.0256783 0.0257273 0.0257764 0.0258256 0.025875 0.0259245
0.0260397 0.0261557 0.0262722 0.0263895 0.0265075 0.026627 0.0267471 0.026868 0.0269896 0.0271119
0.0272143 0.0273172 0.0274206 0.0275244 0.0276282 0.0276504 0.0276727 0.027695 0.0277173 0.0277396
0.0278681 0.0279974 0.0281273 0.028258 0.0283894 0.0285226 0.0286565 0.0287913 0.0289268 0.0290629
0.0292007 0.0293393 0.0294787 0.0296188 0.0297597 0.0297728 0.029786 0.0297991 0.0298123 0.0298255
0.0299554 0.030086 0.0302172 0.030349 0.0304815 0.030629 0.0307773 0.0309265 0.0310765 0.0312271
0.0313797 0.0315331 0.0316873 0.0318423 0.0319979 0.0320403 0.0320827 0.0321252 0.0321677 0.0322106
0.0323265 0.0324428 0.0325596 0.0326767 0.0327942 0.0329566 0.0331199 0.033284 0.0334489 0.0336142
0.0337817 0.0339501 0.0341192 0.0342891 0.0344594 0.0345465 0.0346338 0.0347212 0.0348089 0.0348985
0.0349843 0.0350702 0.0351563 0.0352425 0.0353289 0.0355061 0.035684 0.0358627 0.036042 0.0362217
0.0364034 0.0365859 0.0367691 0.036953 0.0371371 0.0373029 0.0374693 0.0376362 0.0378036 0.0379801
0.037999 0.038018 0.038037 0.038056 0.038075 0.0382658 0.0384572 0.0386492 0.0388418 0.0390346
0.0392293 0.0394247 0.0396207 0.0398172 0.0400138 0.0402125 0.0404118 0.0406117 0.0408121 0.0410125
0.0411245 0.0412367 0.041349 0.0414614 0.0415784 0.0416685 0.0417587 0.0418489 0.0419392 0.0420295
0.0422355 0.0424419 0.0426487 0.0428559 0.043063 0.0432721 0.0434815 0.0436914 0.0439015 0.0441116
0.0443235 0.0445359 0.0447486 0.0449614 0.0451742 0.0453085 0.0454428 0.0455773 0.0457118 0.0458531
0.0459324 0.0460118 0.0460911 0.0461705 0.0462498 0.0464669 0.0466842 0.0469016 0.0471192 0.0473365
0.0475556 0.0477749 0.0479944 0.0482139 0.048433 0.048654 0.0488751 0.0490964 0.0493176 0.0495385
0.0497609 0.0499834 0.0502058 0.0504282 0.0506502 0.0507204 0.0507906 0.0508607 0.0509309 0.0510031
0.0511562 0.0513093 0.0514623 0.0516152 0.051768 0.0519928 0.0522176 0.0524422 0.0526666 0.0528906
0.053116 0.0533413 0.0535665 0.0537914 0.0540158 0.0542417 0.0544674 0.0546929 0.0549182 0.0551428
0.0553688 0.0555946 0.0558201 0.0560452 0.0562697 0.0564956 0.0567211 0.0569462 0.0571708 0.0573947
0.057441 0.0574873 0.0575336 0.0575798 0.0576281 0.0578062 0.0579839 0.0581613 0.0583384 0.058515
0.0587392 0.0589628 0.0591857 0.0594078 0.059629 0.059842 0.0600546 0.0602667 0.0604782 0.0606887
0.0609064 0.0611234 0.0613395 0.0615548 0.0617689 0.0619205 0.0620716 0.0622223 0.0623724 0.0625361
0.0626021 0.062668 0.0627339 0.0627996 0.0628652 0.0630899 0.0633134 0.0635356 0.0637567 0.0639764
0.0642033 0.0644289 0.0646532 0.0648761 0.0650974 0.0653259 0.0655529 0.0657784 0.0660024 0.0662247
0.0663003 0.0663758 0.0664511 0.0665262 0.0666056 0.0667566 0.0669069 0.0670564 0.0672052 0.0673532
0.0675827 0.0678105 0.0680365 0.0682606 0.068483 0.0687121 0.0689393 0.0691647 0.0693881 0.0696096
0.0698377 0.0700637 0.0702878 0.0705098 0.0707298 0.070827 0.0709239 0.0710203 0.0711164 0.0712216
0.0713462 0.0714702 0.0715936 0.0717162 0.0718383 0.0720627 0.0722849 0.072505 0.0727229 0.0729387
0.0731606 0.0733803 0.0735978 0.0738131 0.0740263 0.0742455 0.0744625 0.0746773 0.0748899 0.0751003
0.0753166 0.0755307 0.0757424 0.0759519 0.0761594 0.0762784 0.0763966 0.0765142 0.076631 0.0767665
0.076854 0.076941 0.0770277 0.0771139 0.0771998 0.0774097 0.0776173 0.0778226 0.0780256 0.0782266
0.0784331 0.0786373 0.0788393 0.079039 0.0792366 0.0794398 0.0796407 0.0798393 0.0800357 0.0802301
0.0804299 0.0806275 0.0808228 0.0810159 0.0812071 0.0814035 0.0815975 0.0817894 0.0819792 0.0821671
0.0823601 0.082551 0.0827397 0.0829263 0.0831109 0.0833005 0.0834879 0.0836733 0.0838565 0.0840378
0.0841438 0.0842489 0.0843533 0.0844569 0.0845166 0.0846027 0.0846883 0.0847734 0.084858 0.0849421
0.0851233 0.0853024 0.0854798 0.0856557 0.0858301 -9.99971e-06 -7.99973e-06 -5.99977e-06 -3.99983e-06 -1.9999e-06
0 2.96546e-05 5.9305e-05 8.89511e-05 0.000118593 0.000148229 0.000178596 0.000208956 0.000239311 0.000269659
0.000300002 0.000329125 0.000358243 0.000387355 0.000416461 0.000445561 0.000473494 0.000501421 0.000529344 0.000557262
0.000585175 0.00061197 0.00063876 0.000665547 0.00069233 0.000719108 0.000744811 0.000770511 0.000796207 0.0008219
0.000847589 0.000872247 0.000896903 0.000921555 0.000946204 0.000970849 0.000994509 0.00101816 0.00104182 0.00106547
0.00108912 0.00111182 0.00113451 0.00115721 0.0011799 0.00120259 0.00122437 0.00124615 0.00126793 0.0012897
0.00131147 0.00133237 0.00135327 0.00137417 0.00139506 0.00141595 0.00143601 0.00145606 0.00147611 0.00149616
0.00151621 0.00153546 0.0015547 0.00157394 0.00159318 0.00161242 0.00163089 0.00164936 0.00166782 0.00168629
0.00170475 0.00172247 0.00174019 0.00175791 0.00177563 0.00179335 0.00181036 0.00182737 0.00184437 0.00186138
0.00187838 0.0018947 0.00191103 0.00192735 0.00194367 0.00195998 0.00197565 0.00199131 0.00200698 0.00202264
0.0020383 0.00204876 0.00205921 0.00206966 0.00208012 0.00209057 0.00210111 0.00211164 0.00212217 0.0021327
0.00214324 0.00215385 0.00216446 0.00217507 0.00218569 0.0021963 0.00220699 0.00221768 0.00222837 0.00223907
0.00224976 0.00226053 0.0022713 0.00228207 0.00229285 0.00230362 0.00231447 0.00232532 0.00233618 0.00234703
0.00235788 0.00236882 0.00237975 0.00239069 0.00240162 0.00241255 0.00242357 0.00243459 0.00244561 0.00245662
0.00246764 0.00247874 0.00248984 0.00250094 0.00251204 0.00252314 0.00253432 0.00254551 0.00255669 0.00256788
0.00257906 0.00259033 0.0026016 0.00261287 0.00262414 0.00263541 0.00264676 0.00265812 0.00266947 0.00268083
0.00269218 0.00270362 0.00271507 0.00272651 0.00273795 0.00274939 0.00276092 0.00277245 0.00278398 0.00279551
0.00280704 0.00281866 0.00283027 0.00284189 0.00285351 0.00286513 0.00287683 0.00288854 0.00290025 0.00291195
0.00292366 0.00293546 0.00294725 0.00295905 0.00297085 0.00298264 0.00299453 0.00300642 0.0030183 0.00303019
0.00304208 0.00305406 0.00306604 0.00307802 0.00309 0.00310198 0.00311405 0.00312612 0.00313819 0.00315026
0.00316233 0.0031745 0.00318666 0.00319882 0.00321099 0.00322315 0.00323541 0.00324767 0.00325993 0.00327218
0.00328444 0.0032968 0.00330915 0.0033215 0.00333386 0.00334621 0.00335866 0.00337111 0.00338355 0.003396
0.00340845 0.00342099 0.00343354 0.00344608 0.00345862 0.00347117 0.00348381 0.00349645 0.00350909 0.00352173
0.00353438 0.00354711 0.00355985 0.00357259 0.00358532 0.00359806 0.0036109 0.00362374 0.00363657 0.00364941
0.00366225 0.00367518 0.00368812 0.00370105 0.00371399 0.00372692 0.00373996 0.003753 0.00376603 0.00377907
0.00379211 0.00379366 0.00379521 0.00379676 0.00379831 0.00379986 0.00381144 0.00382303 0.00383462 0.0038462
0.00385779 0.00387103 0.00388426 0.0038975 0.00391073 0.00392397 0.00393731 0.00395065 0.00396399 0.00397733
0.00399067 0.00400412 0.00401756 0.004031 0.00404445 0.00405789 0.00407144 0.00408499 0.00409853 0.00411208
0.00412563 0.00413928 0.00415293 0.00416658 0.00418024 0.00419389 0.00420764 0.0042214 0.00423515 0.00424891
0.00426266 0.00427653 0.00429039 0.00430426 0.00431812 0.00433199 0.00434596 0.00435993 0.0043739 0.00438787
0.00440184 0.00441592 0.00443 0.00444408 0.00445816 0.00447224 0.00448643 0.00450061 0.0045148 0.00452898
0.00454317 0.00455747 0.00457177 0.00458607 0.00460037 0.00461467 0.00462908 0.00464349 0.00465789 0.0046723
0.00468671 0.00470123 0.00471576 0.00473027 0.00474479 0.00475932 0.00477395 0.00478859 0.00480322 0.00481785
0.00483248 0.00484723 0.00486198 0.00487673 0.00489147 0.00490622 0.00492109 0.00493595 0.00495081 0.00496567
0.00498054 0.00499552 0.0050105 0.00502548 0.00504045 0.00505543 0.00507053 0.00508563 0.00510072 0.00511582
0.00513091 0.00514613 0.00516135 0.00517656 0.00519178 0.00520699 0.00522233 0.00523766 0.00525299 0.00526833
0.00528366 0.00529912 0.00531457 0.00533003 0.00534549 0.00536094 0.00537652 0.0053921 0.00540768 0.00542325
0.00543883 0.00545453 0.00547023 0.00548593 0.00550163 0.00551733 0.00553316 0.00554898 0.00556481 0.00558063
0.00559646 0.00561241 0.00562836 0.00564432 0.00566027 0.00567622 0.0056923 0.00570838 0.00572445 0.00574053
0.00575661 0.00577282 0.00578903 0.00580524 0.00582145 0.00583767 0.00585024 0.00586281 0.00587538 0.00588796
0.00590034 0.00590415 0.00590795 0.00591176 0.00591556 0.00591937 0.00593583 0.00595231 0.00596878 0.00598525
0.00600172 0.00601833 0.00603494 0.00605154 0.00606815 0.00608476 0.00610151 0.00611825 0.00613499 0.00615174
0.00616848 0.00618537 0.00620225 0.00621913 0.00623602 0.0062529 0.00626994 0.00628695 0.00630397 0.006321
0.00633802 0.0063552 0.00637236 0.00638952 0.00640668 0.00642385 0.00644118 0.00645849 0.0064758 0.00649311
0.00651043 0.00652791 0.00654537 0.00656282 0.00658027 0.00659775 0.00661538 0.00663299 0.00665059 0.0066682
0.00668582 0.00670361 0.00672138 0.00673913 0.00675689 0.00677467 0.00679261 0.00681054 0.00682845 0.00684636
0.0068643 0.00688241 0.0069005 0.00691857 0.00693665 0.00695475 0.00697302 0.00699128 0.00700951 0.00702775
0.00704601 0.00706445 0.00708287 0.00710127 0.00711967 0.00713811 0.00715672 0.00717531 0.00719388 0.00721246
0.00723107 0.00724985 0.00726861 0.00728737 0.00730613 0.00732491 0.00734387 0.00736281 0.00738174 0.00740069
0.00741965 0.00743879 0.0074579 0.00747702 0.00749615 0.00751529 0.00753462 0.00755392 0.00757323 0.00759256
0.00761189 0.0076314 0.00765089 0.0076704 0.00768992 0.00770944 0.00772914 0.00774884 0.00776854 0.00778825
0.00780798 0.00781285 0.00781771 0.00782258 0.00782745 0.00783226 0.00784731 0.00786236 0.00787741 0.00789247
0.00790754 0.00792764 0.00794774 0.00796786 0.00798798 0.00800812 0.00802844 0.00804876 0.00806908 0.00808942
0.00810977 0.00813032 0.00815085 0.00817139 0.00819194 0.00821251 0.00823329 0.00825405 0.00827481 0.00829558
0.00831639 0.0083374 0.00835839 0.00837937 0.00840037 0.0084214 0.00844266 0.00846389 0.0084851 0.00850633
0.00852761 0.00854911 0.00857059 0.00859204 0.00861352 0.00863505 0.00865679 0.00867851 0.00870022 0.00872194
0.00874372 0.00876572 0.0087877 0.00880966 0.00883164 0.00885367 0.00887593 0.00889817 0.00892041 0.00894266
0.00896496 0.00898748 0.00900998 0.00903249 0.00905503 0.00907759 0.00910038 0.00912316 0.00914595 0.00916877
0.00919161 0.00921468 0.00923774 0.00926083 0.00928394 0.00930708 0.00932871 0.00935036 0.00937203 0.00939371
0.00941436 0.00941629 0.00941822 0.00942015 0.00942208 0.00942401 0.00944765 0.00947131 0.00949499 0.00951871
0.00954245 0.0095664 0.00959037 0.00961437 0.00963839 0.00966244 0.00968672 0.00971101 0.00973533 0.00975967
0.00978405 0.00980866 0.00983328 0.00985792 0.00988259 0.0099073 0.00993226 0.00995722 0.00998219 0.0100072
0.0100322 0.0100575 0.0100829 0.0101082 0.0101335 0.0101589 0.0101846 0.0102103 0.0102359 0.0102616