# Residuals     
# Time          	p               	Ux              	Uy              	k               	epsilon         
0               	N/A	N/A	N/A	N/A
1               	1.00000000e+00	1.00000000e+00	0.00000000e+00	1.00000000e+00	2.23232063e-01
2               	4.73992831e-02	4.28710974e-01	2.88569338e-01	3.70849168e-01	1.47321700e-01
3               	1.44902445e-01	1.04295150e-01	1.56909633e-01	1.96624321e-01	8.58553943e-02
4               	1.09688686e-01	6.08147997e-02	8.62789599e-02	1.35066628e-01	1.04847220e-01
5               	9.37245066e-02	5.57833930e-02	8.05057505e-02	1.01583177e-01	9.35859840e-02
6               	8.13618594e-02	5.24895621e-02	6.78624516e-02	8.38433888e-02	6.09357534e-02
7               	6.95151492e-02	4.94289070e-02	6.32125759e-02	7.65715875e-02	6.15202613e-02
8               	6.34745227e-02	4.66246756e-02	6.04236589e-02	7.32718825e-02	6.08282750e-02
9               	5.91255580e-02	4.31968693e-02	5.98708585e-02	7.11273483e-02	6.32941528e-02
10              	5.48427356e-02	4.05009258e-02	5.68156412e-02	6.89781454e-02	5.99207491e-02
11              	5.19889484e-02	3.77123980e-02	5.40145182e-02	6.71333562e-02	6.00284943e-02
12              	5.15628508e-02	3.53870266e-02	5.09451533e-02	6.45370748e-02	5.64111232e-02
13              	5.27410690e-02	3.34293063e-02	4.85459227e-02	6.21710348e-02	5.41107603e-02
14              	5.22070343e-02	3.14484891e-02	4.69689095e-02	5.98267683e-02	5.21177821e-02
15              	5.15792026e-02	2.95073891e-02	4.61347936e-02	5.76342844e-02	5.05614680e-02
16              	5.04417063e-02	2.77856432e-02	4.53828129e-02	5.56149709e-02	4.97845519e-02
17              	4.84241820e-02	2.61629323e-02	4.45494722e-02	5.35297076e-02	4.70507460e-02
18              	4.66029952e-02	2.47440441e-02	4.31824295e-02	5.15867232e-02	4.49020228e-02
19              	4.55821580e-02	2.34000784e-02	4.18504225e-02	4.95902845e-02	4.23270394e-02
20              	4.34994983e-02	2.21286519e-02	4.08580092e-02	4.77394530e-02	4.02772013e-02
21              	4.24397344e-02	2.07458746e-02	3.97336318e-02	4.58473645e-02	3.80102634e-02
22              	4.14089291e-02	1.95328368e-02	3.86392187e-02	4.40719651e-02	3.59952871e-02
23              	4.03830328e-02	1.83665554e-02	3.74334209e-02	4.22756323e-02	3.38663465e-02
24              	3.96401245e-02	1.72323202e-02	3.56609913e-02	4.05123640e-02	3.17896490e-02
25              	3.79860426e-02	1.61943364e-02	3.42206111e-02	3.88506834e-02	2.97678527e-02
26              	3.71152666e-02	1.51195386e-02	3.29656226e-02	3.72742684e-02	2.78664253e-02
27              	3.66624775e-02	1.41177334e-02	3.19905747e-02	3.57847366e-02	2.61795857e-02
28              	3.66633032e-02	1.31878774e-02	3.06967200e-02	3.43653850e-02	2.47544881e-02
29              	3.55213154e-02	1.23294226e-02	2.97263639e-02	3.29824921e-02	2.33351288e-02
30              	3.51732202e-02	1.15260961e-02	2.87459462e-02	3.16255159e-02	2.22297181e-02
31              	3.47543602e-02	1.07628035e-02	2.77974905e-02	3.02878189e-02	2.09506373e-02
32              	3.49029634e-02	1.00741122e-02	2.69746603e-02	2.89836779e-02	1.98170881e-02
33              	3.37855430e-02	9.44634717e-03	2.62826464e-02	2.77151841e-02	1.87476135e-02
34              	3.41969382e-02	8.88047791e-03	2.57325721e-02	2.65309855e-02	1.77414946e-02
35              	3.46883563e-02	8.38785052e-03	2.52812498e-02	2.53578826e-02	1.67767289e-02
36              	3.40738734e-02	7.91533201e-03	2.47707456e-02	2.42108564e-02	1.58986492e-02
37              	3.38596105e-02	7.47911893e-03	2.44211440e-02	2.31059858e-02	1.49759715e-02
38              	3.37139789e-02	7.10606748e-03	2.41699910e-02	2.20516502e-02	1.41082668e-02
39              	3.40935702e-02	6.79839218e-03	2.40423702e-02	2.10811645e-02	1.33235114e-02
40              	3.45000574e-02	6.51488378e-03	2.39242813e-02	2.01276627e-02	1.26402027e-02
41              	3.41452662e-02	6.24072606e-03	2.39720879e-02	1.92386476e-02	1.20070024e-02
42              	3.29810731e-02	6.03517652e-03	2.40920698e-02	1.84104866e-02	1.14566766e-02
43              	3.29183265e-02	5.83403185e-03	2.42550033e-02	1.76462589e-02	1.09920678e-02
44              	3.25359286e-02	5.66969633e-03	2.44817017e-02	1.69117876e-02	1.05657936e-02
45              	3.19091586e-02	5.51786121e-03	2.47192543e-02	1.62501848e-02	1.02446315e-02
46              	3.21021691e-02	5.40453343e-03	2.49794848e-02	1.56156192e-02	9.90184918e-03
47              	3.16759559e-02	5.30528151e-03	2.53196549e-02	1.50279823e-02	9.57858390e-03
48              	3.13080766e-02	5.21870292e-03	2.55311181e-02	1.44951928e-02	9.29999582e-03
49              	3.03443021e-02	5.14984627e-03	2.57518531e-02	1.40214874e-02	9.05072310e-03
50              	2.87199178e-02	5.09780624e-03	2.60886473e-02	1.36548543e-02	8.87712925e-03
51              	2.90114867e-02	5.05455579e-03	2.63605390e-02	1.33454521e-02	8.76174535e-03
52              	2.90072803e-02	5.01958569e-03	2.66177987e-02	1.30821445e-02	8.67755086e-03
53              	2.84037256e-02	4.98854719e-03	2.69110948e-02	1.28686576e-02	8.63296647e-03
54              	2.79760861e-02	4.96529298e-03	2.71613858e-02	1.26819676e-02	8.66995485e-03
55              	2.77637946e-02	4.95262362e-03	2.73914103e-02	1.25113018e-02	8.69592624e-03
56              	2.72243177e-02	4.93527895e-03	2.75728587e-02	1.23577259e-02	8.71140083e-03
57              	2.68525402e-02	4.92514918e-03	2.77621581e-02	1.22184552e-02	8.72253658e-03
58              	2.67516473e-02	4.91648479e-03	2.79078381e-02	1.20943769e-02	8.73320387e-03
59              	2.67022199e-02	4.90918721e-03	2.80621110e-02	1.19826317e-02	8.73296919e-03
60              	2.62700853e-02	4.90475371e-03	2.82451807e-02	1.18824172e-02	8.72020192e-03
61              	2.57203318e-02	4.90156215e-03	2.84244932e-02	1.17927099e-02	8.70368293e-03
62              	2.54682534e-02	4.90167200e-03	2.85835736e-02	1.17139237e-02	8.68582934e-03
63              	2.58608460e-02	4.90443000e-03	2.87471785e-02	1.16435116e-02	8.66893346e-03
64              	2.61274672e-02	4.91113900e-03	2.88862158e-02	1.15792401e-02	8.65429255e-03
65              	2.51355779e-02	4.91755571e-03	2.90099109e-02	1.15219830e-02	8.64860361e-03
66              	2.44060768e-02	4.92557495e-03	2.91000559e-02	1.14686867e-02	8.62848815e-03
67              	2.43634416e-02	4.93544445e-03	2.92137704e-02	1.14161017e-02	8.60556510e-03
68              	2.45562977e-02	4.94828496e-03	2.93469726e-02	1.13620656e-02	8.57084025e-03
69              	2.41141217e-02	4.96595548e-03	2.94896844e-02	1.13094379e-02	8.52307314e-03
70              	2.39589620e-02	4.98069390e-03	2.96439481e-02	1.12558229e-02	8.46133901e-03
71              	2.36119431e-02	4.99888724e-03	2.98001866e-02	1.12069907e-02	8.39777776e-03
72              	2.37139913e-02	5.01288716e-03	2.99856434e-02	1.11630083e-02	8.33405806e-03
73              	2.39190332e-02	5.02898060e-03	3.01707638e-02	1.11230319e-02	8.27090784e-03
74              	2.33179038e-02	5.04307069e-03	3.03380437e-02	1.10875070e-02	8.20270389e-03
75              	2.32689008e-02	5.05470934e-03	3.05087318e-02	1.10560562e-02	8.14144206e-03
76              	2.27941698e-02	5.06186742e-03	3.06940309e-02	1.10285671e-02	8.07884915e-03
77              	2.25770348e-02	5.06690070e-03	3.09255529e-02	1.10072132e-02	8.01993720e-03
78              	2.28699579e-02	5.07247430e-03	3.11036859e-02	1.09910541e-02	7.95935773e-03
79              	2.21484011e-02	5.07352875e-03	3.13460228e-02	1.09792382e-02	7.89743400e-03
80              	2.24740323e-02	5.06875087e-03	3.15866685e-02	1.09718575e-02	7.84029084e-03
81              	2.18819852e-02	5.06487258e-03	3.17794950e-02	1.09675924e-02	7.78702701e-03
82              	2.18006426e-02	5.05731533e-03	3.20268355e-02	1.09668501e-02	7.73506765e-03
83              	2.18631538e-02	5.04519582e-03	3.22527407e-02	1.09715802e-02	7.68347829e-03
84              	2.22444238e-02	5.02829799e-03	3.25192900e-02	1.09781919e-02	7.63625898e-03
85              	2.24498398e-02	5.01802465e-03	3.28074745e-02	1.09856078e-02	7.58849283e-03
86              	2.18363538e-02	4.99049888e-03	3.30454730e-02	1.09897736e-02	7.53738882e-03
87              	2.19306714e-02	4.97149463e-03	3.34438142e-02	1.09928302e-02	7.49017179e-03
88              	2.21327673e-02	4.94215713e-03	3.38020037e-02	1.09905577e-02	7.44368621e-03
89              	2.17566220e-02	4.91350955e-03	3.42039873e-02	1.09838391e-02	7.39953405e-03
90              	2.19594250e-02	4.87342329e-03	3.45937987e-02	1.09712319e-02	7.35572111e-03
91              	2.26330040e-02	4.83834312e-03	3.50783768e-02	1.09547849e-02	7.30950631e-03
92              	2.20082652e-02	4.79942436e-03	3.55507523e-02	1.09341377e-02	7.26732154e-03
93              	2.17872124e-02	4.75734363e-03	3.60056629e-02	1.09114480e-02	7.22799492e-03
94              	2.14023547e-02	4.72229136e-03	3.63586673e-02	1.08821837e-02	7.18555052e-03
95              	2.17788757e-02	4.68245222e-03	3.69851337e-02	1.08512271e-02	7.14896054e-03
96              	2.12342896e-02	4.63944862e-03	3.72229488e-02	1.08164921e-02	7.11899544e-03
97              	2.21468063e-02	4.59539105e-03	3.76416201e-02	1.07811749e-02	7.10018088e-03
98              	2.08755716e-02	4.55178723e-03	3.78527135e-02	1.07422892e-02	7.08844312e-03
99              	2.12481324e-02	4.50793965e-03	3.80465453e-02	1.07055031e-02	7.09795223e-03
100             	2.07972050e-02	4.46911851e-03	3.81360087e-02	1.06691664e-02	7.10768467e-03
101             	2.06550832e-02	4.42424353e-03	3.81998929e-02	1.06385174e-02	7.12108890e-03
102             	2.03679341e-02	4.38461183e-03	3.81328670e-02	1.06123516e-02	7.13150499e-03
103             	2.07954865e-02	4.34160548e-03	3.80871783e-02	1.05941235e-02	7.14311490e-03
104             	2.02275568e-02	4.30481534e-03	3.79394407e-02	1.05812609e-02	7.15112723e-03
105             	2.05439571e-02	4.26152488e-03	3.76976282e-02	1.05743965e-02	7.15479908e-03
106             	2.07001885e-02	4.22243695e-03	3.74383307e-02	1.05733000e-02	7.16443253e-03
107             	2.04024225e-02	4.18499367e-03	3.70995666e-02	1.05603508e-02	7.16657064e-03
108             	2.15642595e-02	4.14896813e-03	3.67359977e-02	1.05411004e-02	7.16749138e-03
109             	2.08941277e-02	4.11185797e-03	3.63150089e-02	1.05112261e-02	7.16499212e-03
110             	2.10386086e-02	4.07092508e-03	3.56900362e-02	1.04747668e-02	7.16280055e-03
111             	2.14320962e-02	4.03066190e-03	3.52461137e-02	1.04320693e-02	7.16198349e-03
112             	2.15954125e-02	3.98760771e-03	3.47256159e-02	1.03836472e-02	7.15577551e-03
113             	2.15852536e-02	3.94971977e-03	3.40778989e-02	1.03299698e-02	7.14817781e-03
114             	2.20428075e-02	3.91101994e-03	3.32951064e-02	1.02686945e-02	7.13060263e-03
115             	2.22550038e-02	3.86413306e-03	3.27040055e-02	1.02040366e-02	7.11798905e-03
116             	2.31447158e-02	3.82284846e-03	3.20303073e-02	1.01353627e-02	7.10308049e-03
117             	2.30264739e-02	3.78133048e-03	3.13990460e-02	1.00628619e-02	7.07892055e-03
118             	2.34980716e-02	3.73943164e-03	3.07551147e-02	9.98478874e-03	7.05133271e-03
119             	2.37825359e-02	3.69837714e-03	3.01267204e-02	9.90476013e-03	7.01470283e-03
120             	2.35292694e-02	3.65742189e-03	2.95057106e-02	9.81762716e-03	6.97868764e-03
121             	2.37782868e-02	3.61727358e-03	2.89269686e-02	9.72821952e-03	6.92373399e-03
122             	2.39128947e-02	3.58232177e-03	2.84004749e-02	9.63082302e-03	6.85693196e-03
123             	2.32325295e-02	3.54149093e-03	2.79928874e-02	9.53307950e-03	6.79162280e-03
124             	2.36626580e-02	3.51229636e-03	2.74365217e-02	9.41845339e-03	6.72537894e-03
125             	2.28358342e-02	3.48079742e-03	2.71978987e-02	9.29122349e-03	6.60705803e-03
126             	2.26747448e-02	3.44633047e-03	2.68508114e-02	9.17100255e-03	6.48392523e-03
127             	2.24762274e-02	3.41733133e-03	2.65956110e-02	9.05688154e-03	6.37518778e-03
128             	2.24175284e-02	3.38889036e-03	2.63283044e-02	8.94886530e-03	6.27325724e-03
129             	2.16718855e-02	3.36332638e-03	2.60339615e-02	8.84542677e-03	6.17256986e-03
130             	2.16881556e-02	3.34060528e-03	2.58416903e-02	8.74676332e-03	6.07651656e-03
131             	2.21001786e-02	3.32180650e-03	2.56065373e-02	8.65261998e-03	5.97945269e-03
132             	2.10203974e-02	3.30367343e-03	2.53259681e-02	8.56162372e-03	5.88574565e-03
133             	2.07897017e-02	3.28756483e-03	2.50441412e-02	8.47422006e-03	5.79988015e-03
134             	2.06696790e-02	3.27250492e-03	2.48372719e-02	8.39045115e-03	5.70979933e-03
135             	1.99854092e-02	3.25520163e-03	2.46373219e-02	8.30937959e-03	5.62048994e-03
136             	1.99865916e-02	3.23972336e-03	2.43903757e-02	8.22911270e-03	5.53666904e-03
137             	1.97789014e-02	3.22308558e-03	2.41477527e-02	8.15148804e-03	5.45356811e-03
138             	1.92609164e-02	3.20397255e-03	2.38895463e-02	8.07569527e-03	5.36946002e-03
139             	1.92728466e-02	3.18483266e-03	2.36260724e-02	8.00277064e-03	5.29336462e-03
140             	1.91602099e-02	3.16574622e-03	2.33378833e-02	7.93185556e-03	5.21560102e-03
141             	1.86075643e-02	3.14341866e-03	2.30316866e-02	7.86454662e-03	5.13827094e-03
142             	1.84923448e-02	3.11974932e-03	2.26940306e-02	7.80086733e-03	5.06846155e-03
143             	1.83482308e-02	3.09554066e-03	2.23327890e-02	7.73837330e-03	4.99585974e-03
144             	1.77862780e-02	3.06834235e-03	2.19443845e-02	7.67957650e-03	4.92138762e-03
145             	1.75864382e-02	3.04023357e-03	2.15547570e-02	7.62522166e-03	4.85257216e-03
146             	1.74706675e-02	3.00792532e-03	2.11568064e-02	7.57313863e-03	4.78601758e-03
147             	1.75011449e-02	2.97421284e-03	2.07448898e-02	7.53459591e-03	4.71696055e-03
148             	1.67724070e-02	2.93571489e-03	2.03909196e-02	7.51044048e-03	4.69323316e-03
149             	1.66548115e-02	2.89738014e-03	1.99916565e-02	7.48542725e-03	4.65904215e-03
150             	1.75100834e-02	2.85963256e-03	1.95847387e-02	7.45813219e-03	4.61399220e-03
151             	1.58579193e-02	2.81458678e-03	1.91935842e-02	7.43038437e-03	4.55734998e-03
152             	1.61020538e-02	2.77079239e-03	1.87790820e-02	7.40469887e-03	4.50070506e-03
153             	1.58842338e-02	2.72518077e-03	1.83798964e-02	7.37999990e-03	4.43376614e-03
154             	1.59429491e-02	2.67849429e-03	1.79755054e-02	7.35810151e-03	4.36129376e-03
155             	1.57432789e-02	2.62848211e-03	1.76736198e-02	7.33799676e-03	4.28851528e-03
156             	1.60762745e-02	2.58250459e-03	1.73033498e-02	7.32167584e-03	4.20911782e-03
157             	1.54494439e-02	2.53415317e-03	1.70552150e-02	7.30289990e-03	4.12501349e-03
158             	1.58652959e-02	2.48872072e-03	1.67452558e-02	7.28786772e-03	4.04572415e-03
159             	1.55598025e-02	2.43962844e-03	1.65453641e-02	7.25157060e-03	3.96062480e-03
160             	1.57275154e-02	2.39428015e-03	1.62473552e-02	7.20980869e-03	3.87474716e-03
161             	1.56991168e-02	2.34920244e-03	1.61044591e-02	7.14899807e-03	3.78784293e-03
162             	1.61054620e-02	2.30604712e-03	1.58570508e-02	7.08026195e-03	3.69639016e-03
163             	1.58600505e-02	2.25867394e-03	1.57489022e-02	7.00286352e-03	3.60879775e-03
164             	1.54214251e-02	2.21433248e-03	1.55072407e-02	6.91303367e-03	3.52280164e-03
165             	1.51224725e-02	2.16504772e-03	1.53552295e-02	6.81220101e-03	3.43295245e-03
166             	1.48461087e-02	2.11974158e-03	1.52091161e-02	6.70116252e-03	3.34297263e-03
167             	1.48703607e-02	2.07657760e-03	1.50972947e-02	6.58155107e-03	3.25492538e-03
168             	1.54547431e-02	2.03906710e-03	1.51932129e-02	6.45414827e-03	3.16648336e-03
169             	1.58422541e-02	1.99645148e-03	1.51343131e-02	6.32075537e-03	3.08252157e-03
170             	1.58630150e-02	1.96741507e-03	1.50897250e-02	6.17798178e-03	2.99664672e-03
171             	1.51800412e-02	1.92212179e-03	1.48254058e-02	6.02975672e-03	2.90860468e-03
172             	1.47432523e-02	1.88267020e-03	1.47298461e-02	5.87498796e-03	2.82168083e-03
173             	1.48544334e-02	1.84448729e-03	1.44511043e-02	5.71707536e-03	2.74014848e-03
174             	1.41334606e-02	1.80532077e-03	1.43241864e-02	5.55364874e-03	2.65381865e-03
175             	1.38467269e-02	1.76283332e-03	1.40622355e-02	5.38836377e-03	2.57274797e-03
176             	1.33974280e-02	1.72694988e-03	1.38023086e-02	5.22006202e-03	2.49820887e-03
177             	1.32566815e-02	1.69256349e-03	1.35476469e-02	5.04992852e-03	2.42311676e-03
178             	1.26516507e-02	1.65362638e-03	1.32473340e-02	4.87847051e-03	2.34620167e-03
179             	1.22944978e-02	1.61843445e-03	1.29334167e-02	4.70855616e-03	2.28074221e-03
180             	1.22968909e-02	1.58506561e-03	1.25317837e-02	4.53896534e-03	2.21603272e-03
181             	1.16825298e-02	1.54920153e-03	1.21276055e-02	4.37304960e-03	2.15317561e-03
182             	1.10721241e-02	1.51190971e-03	1.17189557e-02	4.20982653e-03	2.09368845e-03
183             	1.06896706e-02	1.47319949e-03	1.12772704e-02	4.05096995e-03	2.03714774e-03
184             	1.05435372e-02	1.43422829e-03	1.08182527e-02	3.89870429e-03	1.99110003e-03
185             	1.05299156e-02	1.39280323e-03	1.03685151e-02	3.74935754e-03	1.94312120e-03
186             	1.00844837e-02	1.34873236e-03	9.90932730e-03	3.60752068e-03	1.89718227e-03
187             	9.90721061e-03	1.30240209e-03	9.46087737e-03	3.47479834e-03	1.86288308e-03
188             	9.65024913e-03	1.25459372e-03	9.03832741e-03	3.34786041e-03	1.82526143e-03
189             	9.08091694e-03	1.20502395e-03	8.66939119e-03	3.23213930e-03	1.78767507e-03
190             	8.90356040e-03	1.15464250e-03	8.33771506e-03	3.12415093e-03	1.74641957e-03
191             	8.61819940e-03	1.10425040e-03	8.01784229e-03	3.02764762e-03	1.70597275e-03
192             	8.45015297e-03	1.05602011e-03	7.73416121e-03	2.94008644e-03	1.66141767e-03
193             	7.98667501e-03	1.01031753e-03	7.51702260e-03	2.85982256e-03	1.60866138e-03
194             	7.56307882e-03	9.65850869e-04	7.26579450e-03	2.78723312e-03	1.55554013e-03
195             	7.31687590e-03	9.23477686e-04	7.02776204e-03	2.72154696e-03	1.50657227e-03
196             	7.35315442e-03	8.86562281e-04	6.88203514e-03	2.65643516e-03	1.45124551e-03
197             	6.98317912e-03	8.50234708e-04	6.73216624e-03	2.59168232e-03	1.39482885e-03
198             	6.78628279e-03	8.17443036e-04	6.55540370e-03	2.52615459e-03	1.34440938e-03
199             	6.57008538e-03	7.88797901e-04	6.40951265e-03	2.45749043e-03	1.29270756e-03
200             	6.34617577e-03	7.61596986e-04	6.28532544e-03	2.38822175e-03	1.24098117e-03
201             	6.18303263e-03	7.37598114e-04	6.11083136e-03	2.31886234e-03	1.19435366e-03
202             	6.02826432e-03	7.16411932e-04	5.98884833e-03	2.24950069e-03	1.15388747e-03
203             	6.01705865e-03	6.97459842e-04	5.84851441e-03	2.17822162e-03	1.11233211e-03
204             	5.71593925e-03	6.79995178e-04	5.72477862e-03	2.10797767e-03	1.07540598e-03
205             	5.53427262e-03	6.65611652e-04	5.54534816e-03	2.03597898e-03	1.03931730e-03
206             	5.36728123e-03	6.51098452e-04	5.39663031e-03	1.96566078e-03	1.00693189e-03
207             	5.26502266e-03	6.38396026e-04	5.25896158e-03	1.89827820e-03	9.83209878e-04
208             	5.38355077e-03	6.28485509e-04	5.14362156e-03	1.82874024e-03	9.55127933e-04
209             	5.04185448e-03	6.18402055e-04	4.98891713e-03	1.76211483e-03	9.25952972e-04
210             	4.92507838e-03	6.07991403e-04	4.84383074e-03	1.69780992e-03	9.03768121e-04
211             	4.82585803e-03	5.97017415e-04	4.67585040e-03	1.63527389e-03	8.81713692e-04
212             	4.50236383e-03	5.85657828e-04	4.51342114e-03	1.57586942e-03	8.60366097e-04
213             	4.34281868e-03	5.73738642e-04	4.35238397e-03	1.52000285e-03	8.40678671e-04
214             	4.33783133e-03	5.61816653e-04	4.20209556e-03	1.46907521e-03	8.29539817e-04
215             	4.64220649e-03	5.49846155e-04	4.05761187e-03	1.41827058e-03	8.12513854e-04
216             	4.04764074e-03	5.36219032e-04	3.92249488e-03	1.37276800e-03	7.96210931e-04
217             	3.87336464e-03	5.22042485e-04	3.77378314e-03	1.33023174e-03	7.83603180e-04
218             	3.81550419e-03	5.08113753e-04	3.64087872e-03	1.29103821e-03	7.72632246e-04
219             	3.59689871e-03	4.93463419e-04	3.51552486e-03	1.25495349e-03	7.58542064e-04
220             	3.47389826e-03	4.78776711e-04	3.39531313e-03	1.22224734e-03	7.47561298e-04
221             	3.52542477e-03	4.64321370e-04	3.28693464e-03	1.19467950e-03	7.42469380e-04
222             	3.73996270e-03	4.50211542e-04	3.19807234e-03	1.16653515e-03	7.29558679e-04
223             	3.47210121e-03	4.35939899e-04	3.09517774e-03	1.14238055e-03	7.14634470e-04
224             	3.46012798e-03	4.22240100e-04	3.02944770e-03	1.12162711e-03	7.06354606e-04
225             	3.42027940e-03	4.08217123e-04	2.93530279e-03	1.10078089e-03	6.90374607e-04
226             	3.17202217e-03	3.94823546e-04	2.83723541e-03	1.08215946e-03	6.74373953e-04
227             	3.30455773e-03	3.82415333e-04	2.76443795e-03	1.06614547e-03	6.63180396e-04
228             	3.13612136e-03	3.70976025e-04	2.70719081e-03	1.04825111e-03	6.46332006e-04
229             	2.81309422e-03	3.59810276e-04	2.63970031e-03	1.03110925e-03	6.27888992e-04
230             	2.87382625e-03	3.49261543e-04	2.57710162e-03	1.01473818e-03	6.16110114e-04
231             	2.89519221e-03	3.39225152e-04	2.52910206e-03	9.94796592e-04	5.98105683e-04
232             	2.67463839e-03	3.29473972e-04	2.49501250e-03	9.74944087e-04	5.79292436e-04
233             	2.78068098e-03	3.19737592e-04	2.43022187e-03	9.55196629e-04	5.67133284e-04
234             	2.87208222e-03	3.11370962e-04	2.38278587e-03	9.32280095e-04	5.48860970e-04
235             	2.62493072e-03	3.02498264e-04	2.33570793e-03	9.10253340e-04	5.30391850e-04
236             	2.56983513e-03	2.94348846e-04	2.29350769e-03	8.87669219e-04	5.15541235e-04
237             	2.39415462e-03	2.87808724e-04	2.24749656e-03	8.63729435e-04	4.99329082e-04
238             	2.31210453e-03	2.80757871e-04	2.18493560e-03	8.39507346e-04	4.82154523e-04
239             	2.30504328e-03	2.74113699e-04	2.12751476e-03	8.15873882e-04	4.67256978e-04
240             	2.23692030e-03	2.67528576e-04	2.07596769e-03	7.92526276e-04	4.54893730e-04
241             	2.32983874e-03	2.62166550e-04	2.01800754e-03	7.68778562e-04	4.41434813e-04
242             	2.14954629e-03	2.56276454e-04	1.97167610e-03	7.44802656e-04	4.25035607e-04
243             	1.97076179e-03	2.50271536e-04	1.91060016e-03	7.21626117e-04	4.11900200e-04
244             	2.06403508e-03	2.44306688e-04	1.84822734e-03	7.01149834e-04	4.04852122e-04
245             	2.26687317e-03	2.38465068e-04	1.78377191e-03	6.78070724e-04	3.91047262e-04
246             	1.90098460e-03	2.31454079e-04	1.70695228e-03	6.56782768e-04	3.77533548e-04
247             	1.91644859e-03	2.24840408e-04	1.64563809e-03	6.37472613e-04	3.70933929e-04
248             	1.92144211e-03	2.17611958e-04	1.57896124e-03	6.16975358e-04	3.58565307e-04
249             	1.64539857e-03	2.10381072e-04	1.51426805e-03	5.98553802e-04	3.47921288e-04
250             	1.77120762e-03	2.02957744e-04	1.45336742e-03	5.82398068e-04	3.42902951e-04
251             	1.80161187e-03	1.95719270e-04	1.39181443e-03	5.65134174e-04	3.32148828e-04
252             	1.51895063e-03	1.88138592e-04	1.33491171e-03	5.50044457e-04	3.22087074e-04
253             	1.61888022e-03	1.80540180e-04	1.28572462e-03	5.37234014e-04	3.16868766e-04
254             	1.65712582e-03	1.73307164e-04	1.23421977e-03	5.23381045e-04	3.05698228e-04
255             	1.37952653e-03	1.65995377e-04	1.19195802e-03	5.11585132e-04	2.94736978e-04
256             	1.45941225e-03	1.58806738e-04	1.15645702e-03	5.01618674e-04	2.87910063e-04
257             	1.42691479e-03	1.52206100e-04	1.11662848e-03	4.90728870e-04	2.76609678e-04
258             	1.21582416e-03	1.45947963e-04	1.09140510e-03	4.81236259e-04	2.64526484e-04
259             	1.32975543e-03	1.39829772e-04	1.05866308e-03	4.73714679e-04	2.59518931e-04
260             	1.49690390e-03	1.34669205e-04	1.03940321e-03	4.63111682e-04	2.47703606e-04
261             	1.21428277e-03	1.29203967e-04	1.00780965e-03	4.53196810e-04	2.34484176e-04
262             	1.28244419e-03	1.24619859e-04	9.91038680e-04	4.43614150e-04	2.29367037e-04
