# vtk DataFile Version 2.0
tracks
ASCII
DATASET POLYDATA
POINTS 12095 float
-0.0206 0.000999959 1e-05 -0.02058 0.000999961 1e-05 -0.02056 0.000999967 1e-05 -0.02054 0.000999975
1e-05 -0.02052 0.000999986 1e-05 -0.0205 0.001 1e-05 -0.0202034 0.0010002 1e-05
-0.0199069 0.00100071 1e-05 -0.0196103 0.00100149 1e-05 -0.0193138 0.00100255 1e-05 -0.0190172
0.00100389 1e-05 -0.0187133 0.00100545 1e-05 -0.0184094 0.00100701 1e-05 -0.0181054 0.00100856
1e-05 -0.0178015 0.00101011 1e-05 -0.0174976 0.00101166 1e-05 -0.0172058 0.00101315 1e-05
-0.016914 0.00101462 1e-05 -0.0166223 0.00101608 1e-05 -0.0163305 0.00101753 1e-05 -0.0160387
0.00101897 1e-05 -0.0157586 0.00102036 1e-05 -0.0154785 0.00102174 1e-05 -0.0151983 0.00102312
1e-05 -0.0149182 0.0010245 1e-05 -0.0146381 0.00102589 1e-05 -0.0146007 0.00102608 1e-05
-0.0145633 0.00102626 1e-05 -0.0145258 0.00102645 1e-05 -0.0144884 0.00102663 1e-05 -0.014451
0.00102682 1e-05 -0.0142195 0.00102797 1e-05 -0.013988 0.00102912 1e-05 -0.0137565 0.00103027
1e-05 -0.0135249 0.00103143 1e-05 -0.0132934 0.00103258 1e-05 -0.0130352 0.00103387 1e-05
-0.012777 0.00103516 1e-05 -0.0125189 0.00103645 1e-05 -0.0122607 0.00103774 1e-05 -0.0120025
0.00103902 1e-05 -0.0117546 0.00104026 1e-05 -0.0115068 0.00104149 1e-05 -0.0112589 0.00104272
1e-05 -0.0110111 0.00104395 1e-05 -0.0107632 0.00104518 1e-05 -0.0105252 0.00104635 1e-05
-0.0102873 0.00104752 1e-05 -0.0100493 0.00104869 1e-05 -0.00981134 0.00104986 1e-05 -0.00957337
0.00105102 1e-05 -0.00934491 0.00105214 1e-05 -0.00911645 0.00105325 1e-05 -0.008888 0.00105436
1e-05 -0.00865954 0.00105547 1e-05 -0.00843108 0.00105657 1e-05 -0.00821175 0.00105763 1e-05
-0.00799242 0.00105868 1e-05 -0.00777309 0.00105973 1e-05 -0.00755376 0.00106078 1e-05 -0.00733443
0.00106183 1e-05 -0.00712386 0.00106283 1e-05 -0.0069133 0.00106383 1e-05 -0.00670273 0.00106482
1e-05 -0.00649217 0.00106581 1e-05 -0.0062816 0.0010668 1e-05 -0.00607945 0.00106775 1e-05
-0.00587729 0.0010687 1e-05 -0.00567514 0.00106964 1e-05 -0.00547298 0.00107058 1e-05 -0.00527083
0.00107152 1e-05 -0.00507675 0.00107241 1e-05 -0.00488267 0.00107331 1e-05 -0.0046886 0.0010742
1e-05 -0.00449452 0.0010751 1e-05 -0.00430044 0.00107599 1e-05 -0.00411412 0.00107684 1e-05
-0.0039278 0.00107769 1e-05 -0.00374147 0.00107854 1e-05 -0.00355515 0.00107939 1e-05 -0.00336883
0.00108024 1e-05 -0.00318995 0.00108105 1e-05 -0.00301107 0.00108186 1e-05 -0.00283219 0.00108268
1e-05 -0.00265331 0.0010835 1e-05 -0.00247443 0.00108431 1e-05 -0.0023027 0.00108509 1e-05
-0.00213097 0.00108588 1e-05 -0.00195923 0.00108667 1e-05 -0.0017875 0.00108747 1e-05 -0.00161577
0.00108827 1e-05 -0.0014509 0.00108903 1e-05 -0.00128603 0.00108981 1e-05 -0.00112116 0.0010906
1e-05 -0.000956289 0.00109139 1e-05 -0.000791418 0.0010922 1e-05 -0.000633134 0.00109297 1e-05
-0.000474851 0.00109376 1e-05 -0.000316567 0.00109456 1e-05 -0.000158284 0.00109536 1e-05 0
0.00109617 1e-05 0.000105677 0.00109671 1e-05 0.000211355 0.00109725 1e-05 0.000317032 0.0010978
1e-05 0.000422709 0.00109835 1e-05 0.000528387 0.0010989 1e-05 0.000634886 0.00109946 1e-05
0.000741384 0.00110002 1e-05 0.000847883 0.00110059 1e-05 0.000954381 0.00110116 1e-05 0.00106088
0.00110174 1e-05 0.00116821 0.00110233 1e-05 0.00127554 0.00110291 1e-05 0.00138286 0.00110349
1e-05 0.00149019 0.00110407 1e-05 0.00159752 0.00110465 1e-05 0.00170568 0.00110523 1e-05
0.00181384 0.0011058 1e-05 0.00192201 0.00110637 1e-05 0.00203017 0.00110692 1e-05 0.00213833
0.00110746 1e-05 0.00224733 0.00110801 1e-05 0.00235633 0.00110854 1e-05 0.00246534 0.00110906
1e-05 0.00257434 0.00110957 1e-05 0.00268334 0.00111006 1e-05 0.00279319 0.00111056 1e-05
0.00290304 0.00111104 1e-05 0.00301289 0.00111151 1e-05 0.00312274 0.00111198 1e-05 0.00323259
0.00111243 1e-05 0.00334329 0.00111288 1e-05 0.003454 0.00111332 1e-05 0.0035647 0.00111375
1e-05 0.00367541 0.00111417 1e-05 0.00378611 0.00111458 1e-05 0.00389767 0.00111498 1e-05
0.00400924 0.00111538 1e-05 0.0041208 0.00111576 1e-05 0.00423237 0.00111614 1e-05 0.00434393
0.00111651 1e-05 0.00445636 0.00111687 1e-05 0.00456879 0.00111722 1e-05 0.00468123 0.00111756
1e-05 0.00479366 0.0011179 1e-05 0.00490609 0.00111822 1e-05 0.0050194 0.00111854 1e-05
0.0051327 0.00111885 1e-05 0.00524601 0.00111915 1e-05 0.00535931 0.00111945 1e-05 0.00547262
0.00111973 1e-05 0.00558681 0.00112 1e-05 0.005701 0.00112027 1e-05 0.00581518 0.00112054
1e-05 0.00592937 0.00112079 1e-05 0.00604356 0.00112103 1e-05 0.00615863 0.00112127 1e-05
0.00627371 0.0011215 1e-05 0.00638878 0.00112172 1e-05 0.00650386 0.00112194 1e-05 0.00661893
0.00112214 1e-05 0.0067349 0.00112234 1e-05 0.00685087 0.00112253 1e-05 0.00696684 0.00112272
1e-05 0.00708281 0.00112289 1e-05 0.00719878 0.00112306 1e-05 0.00731565 0.00112322 1e-05
0.00743252 0.00112337 1e-05 0.00754939 0.00112351 1e-05 0.00766626 0.00112365 1e-05 0.00778313
0.00112378 1e-05 0.00790091 0.0011239 1e-05 0.00801869 0.00112401 1e-05 0.00813647 0.00112411
1e-05 0.00825425 0.00112421 1e-05 0.00837203 0.00112429 1e-05 0.00840115 0.00112431 1e-05
0.00843027 0.00112433 1e-05 0.00845939 0.00112435 1e-05 0.00848851 0.00112437 1e-05 0.00851718
0.00112438 1e-05 0.00860685 0.00112443 1e-05 0.00869651 0.00112448 1e-05 0.00878618 0.00112452
1e-05 0.00887585 0.00112456 1e-05 0.00896551 0.00112459 1e-05 0.00908513 0.00112462 1e-05
0.00920475 0.00112465 1e-05 0.00932436 0.00112466 1e-05 0.00944398 0.00112467 1e-05 0.0095636
0.00112467 1e-05 0.00968414 0.00112465 1e-05 0.00980468 0.00112463 1e-05 0.00992522 0.0011246
1e-05 0.0100458 0.00112456 1e-05 0.0101663 0.00112452 1e-05 0.0102878 0.00112445 1e-05
0.0104093 0.00112438 1e-05 0.0105308 0.0011243 1e-05 0.0106523 0.00112422 1e-05 0.0107738
0.00112412 1e-05 0.0108962 0.001124 1e-05 0.0110186 0.00112388 1e-05 0.0111411 0.00112375
1e-05 0.0112635 0.00112361 1e-05 0.0113859 0.00112347 1e-05 0.0115093 0.00112329 1e-05
0.0116327 0.00112312 1e-05 0.011756 0.00112294 1e-05 0.0118794 0.00112275 1e-05 0.0120028
0.00112255 1e-05 0.0121271 0.00112232 1e-05 0.0122515 0.00112209 1e-05 0.0123758 0.00112186
1e-05 0.0125002 0.00112161 1e-05 0.0126245 0.00112135 1e-05 0.0127498 0.00112107 1e-05
0.0128751 0.00112078 1e-05 0.0130005 0.00112049 1e-05 0.0131258 0.00112019 1e-05 0.0132511
0.00111987 1e-05 0.0133774 0.00111953 1e-05 0.0135037 0.00111918 1e-05 0.0136299 0.00111883
1e-05 0.0137562 0.00111846 1e-05 0.0138825 0.00111808 1e-05 0.0140098 0.00111768 1e-05
0.014137 0.00111727 1e-05 0.0142643 0.00111686 1e-05 0.0143915 0.00111643 1e-05 0.0145188
0.00111598 1e-05 0.0146471 0.00111552 1e-05 0.0147753 0.00111504 1e-05 0.0149036 0.00111456
1e-05 0.0150318 0.00111407 1e-05 0.0151601 0.00111356 1e-05 0.0152893 0.00111302 1e-05
0.0154186 0.00111248 1e-05 0.0155478 0.00111193 1e-05 0.0156771 0.00111137 1e-05 0.0158063
0.00111079 1e-05 0.0159366 0.00111019 1e-05 0.0160668 0.00110958 1e-05 0.0161971 0.00110896
1e-05 0.0163273 0.00110833 1e-05 0.0164576 0.00110768 1e-05 0.0165889 0.00110701 1e-05
0.0167201 0.00110633 1e-05 0.0168514 0.00110564 1e-05 0.0169826 0.00110493 1e-05 0.0171139
0.00110421 1e-05 0.0172462 0.00110347 1e-05 0.0173785 0.00110271 1e-05 0.0175108 0.00110195
1e-05 0.0176431 0.00110116 1e-05 0.0177754 0.00110037 1e-05 0.0179087 0.00109956 1e-05
0.018042 0.00109873 1e-05 0.0181754 0.00109788 1e-05 0.0183087 0.00109702 1e-05 0.018442
0.00109615 1e-05 0.0185763 0.00109526 1e-05 0.0187107 0.00109436 1e-05 0.018845 0.00109343
1e-05 0.0189794 0.0010925 1e-05 0.0191137 0.00109155 1e-05 0.0192491 0.00109058 1e-05
0.0193845 0.0010896 1e-05 0.0195199 0.00108859 1e-05 0.0196553 0.00108757 1e-05 0.0197907
0.00108654 1e-05 0.0199272 0.0010855 1e-05 0.0200636 0.00108443 1e-05 0.0202001 0.00108335
1e-05 0.0203365 0.00108224 1e-05 0.020473 0.00108113 1e-05 0.0206105 0.00108001 1e-05
0.020748 0.00107886 1e-05 0.0208856 0.00107769 1e-05 0.0210231 0.0010765 1e-05 0.0211606
0.0010753 1e-05 0.0212992 0.00107409 1e-05 0.0214378 0.00107286 1e-05 0.0215763 0.0010716
1e-05 0.0217149 0.00107033 1e-05 0.0218535 0.00106905 1e-05 0.0219931 0.00106775 1e-05
0.0221328 0.00106643 1e-05 0.0222724 0.00106508 1e-05 0.0224121 0.00106372 1e-05 0.0225517
0.00106235 1e-05 0.0226925 0.00106097 1e-05 0.0228332 0.00105956 1e-05 0.022974 0.00105812
1e-05 0.0231147 0.00105666 1e-05 0.0232555 0.0010552 1e-05 0.0233973 0.00105373 1e-05
0.0235392 0.00105223 1e-05 0.023681 0.00105069 1e-05 0.0238229 0.00104914 1e-05 0.0239647
0.00104759 1e-05 0.0241076 0.00104602 1e-05 0.0242506 0.00104443 1e-05 0.0243935 0.00104279
1e-05 0.0245365 0.00104115 1e-05 0.0246794 0.0010395 1e-05 0.0248234 0.00103783 1e-05
0.0249675 0.00103614 1e-05 0.0251115 0.00103441 1e-05 0.0252556 0.00103266 1e-05 0.0253996
0.00103091 1e-05 0.0255448 0.00102915 1e-05 0.02569 0.00102735 1e-05 0.0258351 0.00102552
1e-05 0.0259803 0.00102367 1e-05 0.0261255 0.00102182 1e-05 0.0262718 0.00101994 1e-05
0.0264181 0.00101804 1e-05 0.0265644 0.0010161 1e-05 0.0267107 0.00101415 1e-05 0.026857
0.00101219 1e-05 0.0270044 0.00101021 1e-05 0.0271519 0.0010082 1e-05 0.0272993 0.00100615
1e-05 0.0274468 0.00100409 1e-05 0.0275942 0.00100202 1e-05 0.0277428 0.000999927 1e-05
0.0278914 0.000997797 1e-05 0.0280399 0.000995642 1e-05 0.0281885 0.000993469 1e-05 0.0283371
0.000991279 1e-05 0.0284868 0.000989067 1e-05 0.0286366 0.000986817 1e-05 0.0287863 0.000984545
1e-05 0.0289361 0.000982253 1e-05 0.0290858 0.000979942 1e-05 0.0292367 0.000977606 1e-05
0.0293876 0.000975233 1e-05 0.0295385 0.000972838 1e-05 0.0296894 0.000970423 1e-05 0.0298403
0.000967987 1e-05 0.0299924 0.000965521 1e-05 0.0301445 0.00096302 1e-05 0.0302965 0.000960497
1e-05 0.0304486 0.000957953 1e-05 0.0306007 0.000955386 1e-05 0.030754 0.000952785 1e-05
0.0309072 0.00095015 1e-05 0.0310605 0.000947493 1e-05 0.0312137 0.000944812 1e-05 0.031367
0.000942107 1e-05 0.0315215 0.000939364 1e-05 0.0316759 0.000936589 1e-05 0.0318304 0.000933789
1e-05 0.0319848 0.000930965 1e-05 0.0321393 0.000928116 1e-05 0.0322787 0.000925525 1e-05
[...]
POINT_DATA 12095
FIELD attributes 4
age 1 12095 float
-9.999e-06 -7.99907e-06 -5.9992e-06 -3.9994e-06 -1.99967e-06 0 2.9651e-05 5.92887e-05 8.89131e-05 0.000118524 0.000148122
0.000178445 0.000208757 0.000239061 0.000269358 0.000299648 0.000328725 0.000357799 0.000386873 0.000415948 0.000445022
0.000472936 0.000500852 0.000528771 0.000556692 0.000584617 0.000588347 0.000592078 0.000595809 0.00059954 0.000603266
0.000626351 0.000649439 0.000672529 0.000695622 0.000718718 0.000744475 0.000770236 0.000796001 0.00082177 0.000847543
0.000872291 0.000897041 0.000921796 0.000946556 0.00097132 0.000995101 0.00101888 0.00104267 0.00106647 0.00109026
0.00111312 0.00113597 0.00115883 0.0011817 0.00120457 0.00122653 0.00124849 0.00127046 0.00129243 0.00131441
0.00133552 0.00135663 0.00137774 0.00139886 0.00141998 0.00144027 0.00146055 0.00148084 0.00150114 0.00152143
0.00154093 0.00156043 0.00157993 0.00159943 0.00161894 0.00163768 0.00165642 0.00167516 0.0016939 0.00171265
0.00173066 0.00174867 0.00176668 0.00178469 0.00180271 0.00182003 0.00183733 0.00185464 0.00187195 0.00188927
0.00190591 0.00192254 0.00193917 0.00195581 0.00197245 0.00198845 0.00200442 0.00202041 0.00203639 0.00205238
0.00206306 0.00207373 0.00208441 0.00209508 0.00210576 0.00211653 0.00212729 0.00213806 0.00214882 0.00215958
0.00217044 0.00218129 0.00219214 0.00220299 0.00221384 0.00222479 0.00223573 0.00224666 0.0022576 0.00226854
0.00227957 0.0022906 0.00230163 0.00231265 0.00232368 0.00233481 0.00234593 0.00235705 0.00236817 0.00237929
0.00239052 0.00240173 0.00241295 0.00242417 0.00243539 0.00244671 0.00245802 0.00246934 0.00248066 0.00249198
0.0025034 0.00251482 0.00252623 0.00253766 0.00254908 0.00256061 0.00257213 0.00258366 0.00259518 0.00260672
0.00261835 0.00262999 0.00264162 0.00265326 0.00266491 0.00267666 0.0026884 0.00270015 0.00271191 0.00272367
0.00273553 0.00274739 0.00275926 0.00277114 0.00278302 0.002795 0.00280699 0.00281898 0.00283098 0.00284298
0.00285509 0.00286721 0.00287932 0.00289145 0.00290359 0.00290659 0.00290959 0.00291259 0.0029156 0.00291855
0.0029278 0.00293706 0.00294632 0.00295558 0.00296485 0.00297723 0.00298961 0.003002 0.0030144 0.00302681
0.00303933 0.00305186 0.00306439 0.00307693 0.00308948 0.00310216 0.00311483 0.00312752 0.00314021 0.00315291
0.00316575 0.00317857 0.0031914 0.00320425 0.0032171 0.00323011 0.00324309 0.00325608 0.00326908 0.0032821
0.00329527 0.00330841 0.00332157 0.00333473 0.00334791 0.00336126 0.00337457 0.0033879 0.00340123 0.00341459
0.00342811 0.00344159 0.00345509 0.0034686 0.00348212 0.00349582 0.00350948 0.00352316 0.00353684 0.00355054
0.00356443 0.00357828 0.00359213 0.003606 0.00361989 0.00363397 0.003648 0.00366204 0.00367609 0.00369017
0.00370444 0.00371867 0.0037329 0.00374715 0.00376143 0.0037759 0.00379032 0.00380475 0.00381919 0.00383367
0.00384833 0.00386296 0.00387759 0.00389223 0.00390692 0.00392178 0.00393662 0.00395144 0.00396629 0.00398118
0.00399625 0.00401129 0.00402632 0.00404136 0.00405646 0.00407174 0.00408699 0.00410223 0.00411749 0.0041328
0.00414828 0.00416375 0.0041792 0.00419467 0.0042102 0.0042259 0.00424158 0.00425725 0.00427293 0.00428867
0.00430459 0.00432049 0.00433637 0.00435228 0.00436824 0.00438437 0.00440049 0.00441659 0.00443272 0.00444889
0.00446525 0.00448159 0.00449793 0.00451428 0.00453068 0.00454726 0.00456382 0.00458038 0.00459696 0.00461358
0.00463038 0.00464718 0.00466396 0.00468077 0.00469762 0.00471464 0.00473166 0.00474868 0.00476571 0.00478279
0.00480004 0.00481729 0.00483455 0.00485182 0.00486913 0.00488661 0.00490409 0.00492158 0.00493909 0.00495663
0.00497434 0.00499206 0.00500979 0.00502753 0.0050453 0.00506325 0.00508121 0.00509917 0.00511715 0.00513516
0.00515335 0.00517154 0.00518975 0.00520797 0.00522622 0.00524464 0.00526307 0.00528152 0.00529999 0.00531848
0.00533714 0.00535582 0.00537451 0.00539323 0.00541196 0.00543087 0.00544979 0.00546873 0.00548769 0.00550668
0.00552583 0.005545 0.00556419 0.0055834 0.00560263 0.00562001 0.0056374 0.00565481 0.00567223 0.00568864
0.00569088 0.00569312 0.00569536 0.0056976 0.00569984 0.0057195 0.00573917 0.00575887 0.00577859 0.00579833
0.00581824 0.00583818 0.00585813 0.00587811 0.00589811 0.00591828 0.00593847 0.00595869 0.00597893 0.00599919
0.00601963 0.00604009 0.00606057 0.00608108 0.00610161 0.00612231 0.00614304 0.00616379 0.00618456 0.00620536
0.00622634 0.00624733 0.00626835 0.0062894 0.00631047 0.00633172 0.00635299 0.00637429 0.00639562 0.00641697
0.00643849 0.00646005 0.00648163 0.00650323 0.00652485 0.00654666 0.0065685 0.00659036 0.00661225 0.00663416
0.00665626 0.00667838 0.00670053 0.00672271 0.00674491 0.0067673 0.00678972 0.00681217 0.00683464 0.00685714
0.00687983 0.00690255 0.0069253 0.00694808 0.00697087 0.00699387 0.0070169 0.00703995 0.00706303 0.00708614
0.00710945 0.00713278 0.00715615 0.00717954 0.00720296 0.00722659 0.00725026 0.00727395 0.00729767 0.00732142
0.00734538 0.00736937 0.00739338 0.00741743 0.00744151 0.00745993 0.00747836 0.00749681 0.00751528 0.00753254
0.0075387 0.00754486 0.00755102 0.00755718 0.00756335 0.007588 0.00761268 0.00763739 0.00766214 0.00768693
0.00771193 0.00773697 0.00776205 0.00778717 0.00781233 0.00783771 0.00786313 0.00788859 0.0079141 0.00793964
0.0079654 0.00799121 0.00801707 0.00804297 0.0080689 0.00809507 0.00812128 0.00814754 0.00817385 0.00820019
0.00822677 0.00825341 0.00828009 0.00830683 0.0083336 0.00836061 0.00838768 0.00841481 0.00844198 0.0084692
0.00849667 0.0085242 0.00855178 0.00857941 0.0086071 0.00863503 0.00866304 0.00869109 0.0087192 0.00874736
0.00877418 0.00880104 0.00882796 0.00885493 0.00887982 0.00888189 0.00888395 0.00888602 0.00888809 0.00889016
0.00891911 0.00894813 0.0089772 0.00900635 0.00903556 0.00906506 0.00909463 0.00912427 0.00915398 0.00918377
0.00921385 0.009244 0.00927423 0.00930454 0.00933493 0.00936562 0.00939638 0.00942723 0.00945816 0.00948918
0.00952051 0.00955193 0.00958345 0.00961504 0.00964673 0.00967874 0.00971084 0.00974304 0.00977533 0.00980772
0.00984045 0.00987329 0.00990622 0.00993926 0.0099724 0.00997545 0.00997849 0.00998154 0.00998459 0.00998761
0.0100181 0.0100487 0.0100793 0.0101101 0.0101409 0.0101752 0.0102096 0.0102441 0.0102787 0.0103134
0.0103485 0.0103837 0.0104191 0.0104545 0.0104901 0.0105261 0.0105622 0.0105984 0.0106347 0.0106712
0.0107081 0.0107452 0.0107823 0.0108196 0.0108571 0.0108949 0.0109329 0.0109711 0.0110094 0.0110478
0.0110539 0.01106 0.0110661 0.0110722 0.0110782 0.0111111 0.0111441 0.0111773 0.0112105 0.0112438
0.0112838 0.0113238 0.0113641 0.0114045 0.011445 0.011486 0.0115272 0.0115685 0.01161 0.0116517
0.0116938 0.0117361 0.0117786 0.0118212 0.011864 0.0119073 0.0119508 0.0119944 0.0120382 0.0120822
0.0121158 0.0121494 0.0121832 0.0122171 0.0122509 0.012262 0.0122731 0.0122842 0.0122953 0.0123065
0.0123522 0.012398 0.012444 0.0124902 0.0125366 0.0125834 0.0126305 0.0126777 0.0127251 0.0127726
0.0128206 0.0128688 0.0129172 0.0129658 0.0130145 0.0130637 0.0131131 0.0131627 0.0132124 0.0132622
0.0133126 0.0133632 0.0134139 0.0134648 0.0135158 0.0135544 0.0135932 0.013632 0.0136709 0.0137123
0.0137248 0.0137374 0.01375 0.0137625 0.0137751 0.0138278 0.0138806 0.0139335 0.0139866 0.0140398
0.0140935 0.0141474 0.0142014 0.0142555 0.0143097 0.0143644 0.0144193 0.0144743 0.0145294 0.0145846
0.0146403 0.0146962 0.0147521 0.0148082 0.0148643 0.014921 0.0149777 0.0150346 0.0150916 0.0151486
0.0152061 0.0152638 0.0153215 0.0153793 0.0154372 0.0154956 0.015554 0.0156126 0.0156712 0.0157298
0.015789 0.0158482 0.0159075 0.0159669 0.0160262 0.0160861 0.0161461 0.0162061 0.0162661 0.0163261
0.0163671 0.0164081 0.0164491 0.0164902 0.0165438 0.0165609 0.016578 0.0165951 0.0166122 0.0166293
0.0166905 0.0167516 0.0168129 0.0168741 0.0169353 0.016997 0.0170588 0.0171205 0.0171823 0.017244
0.0173062 0.0173684 0.0174307 0.0174929 0.0175551 0.0176177 0.0176804 0.0177431 0.0178057 0.0178683
0.0179314 0.0179944 0.0180574 0.0181204 0.0181834 0.0182468 0.0183103 0.0183737 0.018437 0.0185004
0.0185641 0.0186279 0.0186916 0.0187552 0.0188188 0.0188829 0.018947 0.019011 0.0190749 0.0191388
0.0192031 0.0192673 0.0193315 0.0193956 0.0194597 0.0195243 0.0195888 0.0196533 0.0197177 0.0197821
0.0198152 0.0198484 0.0198815 0.0199146 0.0199458 0.0199776 0.0200095 0.0200413 0.0200732 0.020105
0.0201699 0.0202348 0.0202997 0.0203645 0.0204292 0.0204943 0.0205593 0.0206243 0.0206892 0.0207541
0.0208194 0.0208846 0.0209498 0.0210149 0.0210799 0.0211454 0.0212108 0.0212761 0.0213414 0.0214066
0.0214722 0.0215378 0.0216033 0.0216688 0.0217342 0.0218 0.0218658 0.0219315 0.0219972 0.0220627
0.0221288 0.0221948 0.0222607 0.0223265 0.0223923 0.0224586 0.0225248 0.0225909 0.022657 0.022723
0.0227896 0.0228561 0.0229225 0.0229889 0.0230552 0.023122 0.0231888 0.0232555 0.0233222 0.0233888
0.023456 0.0235231 0.0235902 0.0236572 0.0237243 0.0237918 0.0238592 0.0239267 0.0239941 0.0240615
0.0241294 0.0241973 0.0242652 0.0243331 0.024401 0.0244694 0.0245377 0.0246061 0.0246744 0.0247428
0.0248117 0.0248806 0.0249496 0.0250185 0.0250875 0.0251333 0.025179 0.0252247 0.0252705 0.0253055
0.0253314 0.0253574 0.0253833 0.0254092 0.0254351 0.0255053 0.0255755 0.0256457 0.0257159 0.0257862
0.0258571 0.025928 0.0259989 0.0260699 0.0261409 0.0262126 0.0262842 0.026356 0.0264277 0.0264996
0.0265721 0.0266446 0.0267172 0.0267899 0.0268627 0.0269361 0.0270096 0.0270832 0.0271569 0.0272307
0.0273051 0.0273797 0.0274543 0.027529 0.0276039 0.0276794 0.0277551 0.0278309 0.0279068 0.0279829
0.0280448 0.0281067 0.0281687 0.0282308 0.0282846 0.0283013 0.028318 0.0283348 0.0283515 0.0283682
0.0284463 0.0285246 0.028603 0.0286816 0.0287604 0.0288399 0.0289196 0.0289994 0.0290794 0.0291598
0.0292409 0.0293222 0.0294037 0.0294853 0.0295674 0.0296501 0.0297331 0.0298162 0.0298996 0.0299834
0.030019 0.0300547 0.0300904 0.0301262 0.0301601 0.0302098 0.0302596 0.0303094 0.0303593 0.0304094
0.030496 0.0305828 0.0306699 0.0307573 0.0308452 0.0309339 0.0310229 0.0311121 0.0312017 0.0312918
0.0313828 0.0314742 0.0315659 0.031658 0.0317497 0.0317499 0.03175 0.0317502 0.0317504 0.0317506
0.0318441 0.0319379 0.032032 0.0321266 0.0322217 0.0323179 0.0324145 0.0325114 0.0326087 0.0327067
0.0328057 0.0329051 0.033005 0.0331052 0.0332062 0.0332111 0.033216 0.0332209 0.0332258 0.0332307
0.033328 0.0334257 0.0335238 0.0336223 0.0337215 0.033827 0.0339328 0.0340392 0.0341461 0.0342538
0.0343379 0.0344223 0.034507 0.034592 0.0346731 0.0346993 0.0347255 0.0347517 0.034778 0.0348043
0.0349169 0.0350301 0.0351439 0.0352583 0.0353735 0.0354901 0.0356074 0.0357252 0.0358437 0.0359631
0.0359939 0.0360248 0.0360557 0.0360866 0.0361173 0.0362081 0.0362992 0.0363908 0.0364827 0.0365751
0.0367004 0.0368264 0.0369531 0.0370805 0.0372089 0.0372852 0.0373617 0.0374384 0.0375154 0.0375911
0.0376461 0.0377013 0.0377566 0.037812 0.0378676 0.0380026 0.0381383 0.0382749 0.0384122 0.0385506
0.0386561 0.0387621 0.0388685 0.0389755 0.0390813 0.039117 0.0391528 0.0391886 0.0392245 0.0392605
0.0394059 0.0395523 0.0396995 0.0398475 0.0399965 0.0401224 0.040249 0.0403761 0.0405039 0.040632
0.0406578 0.0406835 0.0407093 0.0407351 0.040761 0.0409175 0.0410748 0.0412331 0.0413922 0.0415521
0.0416945 0.0418376 0.0419814 0.0421258 0.0422735 0.0422931 0.0423127 0.0423323 0.0423519 0.0423715
0.0425391 0.0427076 0.0428769 0.043047 0.0432176 0.04338 0.043543 0.0437068 0.0438712 0.0440438
0.0440529 0.044062 0.0440712 0.0440803 0.0440894 0.0442672 0.0444457 0.044625 0.0448049 0.0449849
0.0451672 0.0453501 0.0455337 0.0457179 0.0459018 0.0459219 0.045942 0.045962 0.0459821 0.0460025
0.0461688 0.0463355 0.0465025 0.0466699 0.0468368 0.0470261 0.0472156 0.0474055 0.0475957 0.0477853
0.0478802 0.0479753 0.0480704 0.0481655 0.0482679 0.0483632 0.0484584 0.0485536 0.0486488 0.0487438
0.0489288 0.049114 0.0492993 0.0494846 0.0496686 0.0497762 0.0498837 0.049991 0.0500983 0.0502146
0.0502958 0.0503769 0.0504579 0.0505389 0.0506195 0.0508156 0.0510111 0.0512061 0.0514005 0.0515933
0.0517133 0.0518331 0.0519526 0.0520717 0.0522059 0.0522816 0.0523571 0.0524326 0.0525078 0.0525829
0.0527855 0.0529871 0.0531875 0.0533868 0.0535841 0.0537619 0.0539387 0.0541144 0.0542891 0.0545047
0.0545216 0.0545386 0.0545555 0.0545724 0.0545893 0.0547936 0.0549963 0.0551974 0.0553968 0.0555942
0.0557976 0.0559993 0.0561992 0.0563972 0.0565933 0.0567331 0.056872 0.05701 0.057147 0.0573157
0.0573692 0.0574226 0.0574758 0.0575289 0.0575819 0.0577816 0.0579794 0.0581751 0.0583688 0.0585606
0.0587578 0.0589529 0.0591459 0.0593369 0.059526 0.0597205 0.0599128 0.060103 0.0602913 0.0604776
0.0606061 0.0607336 0.0608602 0.0609859 0.0611435 0.0611976 0.0612516 0.0613055 0.0613591 0.0614126
0.0616013 0.0617879 0.0619725 0.0621551 0.062336 0.0625219 0.0627058 0.0628877 0.0630677 0.063246
0.0634294 0.0636107 0.0637901 0.0639676 0.0641435 0.0643245 0.0645034 0.0646804 0.0648556 0.0650293
0.0652079 0.0653846 0.0655594 0.0657325 0.065904 0.0660805 0.0662552 0.066428 0.0665992 0.0667688
0.0669434 0.0671161 0.0672872 0.0674566 0.0676244 0.0676735 0.0677224 0.0677712 0.0678198 0.0678742
0.0679948 0.0681146 0.0682335 0.0683516 0.068469 0.06864 0.0688092 0.0689767 0.0691426 0.069307
0.0694762 0.0696436 0.0698094 0.0699736 0.0701363 0.0703039 0.0704698 0.0706337 0.0707958 0.0709559
0.0711204 0.0712823 0.0714423 0.0716012 0.0717599 -9.99971e-06 -7.99973e-06 -5.99977e-06 -3.99983e-06 -1.9999e-06
0 2.96546e-05 5.9305e-05 8.89511e-05 0.000118593 0.000148229 0.000178596 0.000208956 0.000239311 0.000269659
0.000300002 0.000329126 0.000358243 0.000387355 0.000416461 0.000445562 0.000473494 0.000501422 0.000529344 0.000557262
0.000585176 0.000611971 0.000638762 0.000665548 0.000692331 0.00071911 0.000744813 0.000770513 0.000796209 0.000821902
0.000847591 0.00087225 0.000896906 0.000921558 0.000946207 0.000970854 0.000994513 0.00101817 0.00104182 0.00106547
0.00108912 0.00111182 0.00113452 0.00115722 0.00117991 0.0012026 0.00122438 0.00124616 0.00126794 0.00128971
0.00131148 0.00133238 0.00135328 0.00137418 0.00139507 0.00141597 0.00143602 0.00145607 0.00147613 0.00149618
0.00151623 0.00153547 0.00155472 0.00157396 0.0015932 0.00161244 0.00163091 0.00164937 0.00166784 0.0016863
0.00170477 0.00172249 0.00174021 0.00175793 0.00177565 0.00179337 0.00181038 0.00182738 0.00184439 0.00186139
0.0018784 0.00189472 0.00191104 0.00192736 0.00194368 0.00195999 0.00197566 0.00199132 0.00200698 0.00202264
0.0020383 0.00204875 0.0020592 0.00206966 0.00208011 0.00209056 0.00210109 0.00211162 0.00212215 0.00213268
0.00214321 0.00215382 0.00216443 0.00217504 0.00218564 0.00219625 0.00220694 0.00221763 0.00222832 0.002239
0.00224969 0.00226046 0.00227123 0.002282 0.00229276 0.00230353 0.00231438 0.00232523 0.00233607 0.00234692
0.00235777 0.0023687 0.00237963 0.00239056 0.00240149 0.00241242 0.00242343 0.00243444 0.00244545 0.00245646
0.00246747 0.00247857 0.00248967 0.00250076 0.00251185 0.00252295 0.00253413 0.00254531 0.00255648 0.00256766
0.00257884 0.00259011 0.00260137 0.00261263 0.0026239 0.00263516 0.00264651 0.00265786 0.00266921 0.00268056
0.0026919 0.00270334 0.00271478 0.00272621 0.00273765 0.00274908 0.00276061 0.00277213 0.00278365 0.00279517
0.00280669 0.00281831 0.00282992 0.00284153 0.00285314 0.00286475 0.00287645 0.00288815 0.00289985 0.00291155
0.00292325 0.00293504 0.00294682 0.00295861 0.0029704 0.00298219 0.00299407 0.00300595 0.00301783 0.0030297
0.00304158 0.00305355 0.00306553 0.0030775 0.00308947 0.00310144 0.0031135 0.00312556 0.00313762 0.00314968
0.00316174 0.0031739 0.00318605 0.00319821 0.00321036 0.00322251 0.00323476 0.00324701 0.00325926 0.0032715
0.00328375 0.00329609 0.00330843 0.00332078 0.00333312 0.00334546 0.0033579 0.00337033 0.00338277 0.0033952
0.00340764 0.00342017 0.0034327 0.00344523 0.00345776 0.00347029 0.00348292 0.00349555 0.00350818 0.0035208
0.00353343 0.00354616 0.00355888 0.0035716 0.00358432 0.00359705 0.00360987 0.00362269 0.00363551 0.00364834
0.00366116 0.00367408 0.003687 0.00369992 0.00371284 0.00372575 0.00373784 0.00374992 0.00376201 0.00377409
0.003786 0.00378697 0.00378794 0.00378891 0.00378988 0.00379086 0.00380398 0.0038171 0.00383022 0.00384333
0.00385645 0.00386967 0.00388289 0.00389611 0.00390933 0.00392255 0.00393587 0.00394919 0.00396251 0.00397584
0.00398916 0.00400258 0.00401601 0.00402943 0.00404286 0.00405628 0.00406981 0.00408334 0.00409687 0.0041104
0.00412393 0.00413756 0.00415119 0.00416482 0.00417845 0.00419209 0.00420582 0.00421956 0.00423329 0.00424703
0.00426076 0.00427461 0.00428845 0.0043023 0.00431614 0.00432999 0.00434394 0.00435789 0.00437184 0.00438579
0.00439974 0.0044138 0.00442786 0.00444192 0.00445598 0.00447003 0.0044842 0.00449837 0.00451253 0.0045267
0.00454087 0.00455515 0.00456943 0.0045837 0.00459798 0.00461226 0.00462665 0.00464104 0.00465543 0.00466982
0.0046842 0.00469871 0.00471321 0.00472771 0.00474221 0.00475671 0.00477133 0.00478595 0.00480056 0.00481517
0.00482979 0.00484452 0.00485925 0.00487398 0.0048887 0.00490344 0.00491828 0.00493313 0.00494797 0.00496281
0.00497766 0.00499263 0.00500759 0.00502255 0.00503751 0.00505248 0.00506756 0.00508264 0.00509772 0.0051128
0.00512789 0.00514309 0.00515829 0.00517349 0.0051887 0.0052039 0.00521922 0.00523454 0.00524986 0.00526519
0.00528051 0.00529596 0.0053114 0.00532685 0.0053423 0.00535775 0.00537332 0.00538889 0.00540446 0.00542003
0.0054356 0.0054513 0.00546699 0.00548269 0.00549838 0.00551408 0.00552991 0.00554573 0.00556156 0.00557738
0.00559321 0.00559951 0.0056058 0.00561209 0.00561838 0.00562458 0.00563426 0.00564394 0.00565362 0.00566331
0.00567299 0.00568908 0.00570516 0.00572125 0.00573733 0.00575342 0.00576965 0.00578587 0.00580209 0.00581832
0.00583454 0.0058509 0.00586726 0.00588362 0.00589998 0.00591634 0.00593284 0.00594934 0.00596583 0.00598233
0.00599883 0.00601548 0.00603212 0.00604875 0.00606539 0.00608204 0.00609884 0.00611562 0.00613241 0.00614919
0.00616599 0.00618294 0.00619987 0.0062168 0.00623373 0.00625068 0.00626778 0.00628487 0.00630195 0.00631903
0.00633614 0.0063534 0.00637064 0.00638787 0.00640511 0.00642237 0.00643979 0.0064572 0.0064746 0.006492
0.00650943 0.00652701 0.00654458 0.00656214 0.00657971 0.0065973 0.00661505 0.00663279 0.00665053 0.00666827
0.00668603 0.00670396 0.00672187 0.00673978 0.0067577 0.00677564 0.00679374 0.00681182 0.00682992 0.00684803
0.00686614 0.00688442 0.0069027 0.00692098 0.00693928 0.00695759 0.00697527 0.00699295 0.00701065 0.00702835
0.00704525 0.0070462 0.00704714 0.00704809 0.00704904 0.00704998 0.00706864 0.0070873 0.00710598 0.00712467
0.00714337 0.00716224 0.00718111 0.00719999 0.00721888 0.00723779 0.00725688 0.00727596 0.00729505 0.00731415
0.00733327 0.0073526 0.00737191 0.00739121 0.00741054 0.00742989 0.00744945 0.00746899 0.00748852 0.00750806
0.00752766 0.00754746 0.00756725 0.00758701 0.0076068 0.00762664 0.00764669 0.00766673 0.00768674 0.00770678
0.00772688 0.00774719 0.00776748 0.00778776 0.00780806 0.00782842 0.00784899 0.00786956 0.00789012 0.00791071
0.00793134 0.00795219 0.00797302 0.00799388 0.00801476 0.00803568 0.00805681 0.00807794 0.0080991 0.00812029
0.00814151 0.0081532 0.0081649 0.0081766 0.00818831 0.00819986 0.00820966 0.00821946 0.00822927 0.00823909
0.00824891 0.00827066 0.00829242 0.00831422 0.00833606 0.00835792 0.00838001 0.00840211 0.00842424 0.00844641
0.00846862 0.00849107 0.00851353 0.00853601 0.00855854 0.00858111 0.00860394 0.00862678 0.00864963 0.00867252
0.00869548 0.0087187 0.00874192 0.00876516 0.00878844 0.0088118 0.00883542 0.00885905 0.0088827 0.0089064
0.00893017 0.00895421 0.00897826 0.00900235 0.0090265 0.0090507 0.00907517 0.00909967 0.00912422 0.00914882
0.00917348 0.00919841 0.00922337 0.0092484 0.00927348 0.00929862 0.00930605 0.00931347 0.00932091 0.00932835
0.00933579 0.00935383 0.00937191 0.00939001 0.00940814 0.00942631 0.00945222 0.0094782 0.00950424 0.00953035
0.00955652 0.00958298 0.00960949 0.00963607 0.00966273 0.00968945 0.00971647 0.00974355 0.00977069 0.00979791
0.0098252 0.0098528 0.00988046 0.00990819 0.009936 0.00996389 0.00999208 0.0100203 0.0100487 0.0100771