# Selection     : all 
# Volume        : 1.45160395e-05
# Time          	min(p)	min(epsilon)	min(k)
0               	0.00000000e+00	1.48550000e+01	3.75000000e-01
1               	8.83235338e+00	1.29016217e+01	2.93122106e-01
2               	-4.82960639e+01	1.17601453e+01	9.60157032e-02
3               	-9.48204670e+01	7.97855843e+00	7.85356344e-02
4               	-8.86973131e+01	7.84565101e+00	7.75587806e-02
5               	-6.84104123e+01	6.88042288e+00	7.37184981e-02
6               	-5.34988326e+01	6.85355906e+00	8.35154982e-02
7               	-4.13851905e+01	7.54088661e+00	9.18540097e-02
8               	-3.26435860e+01	7.29333089e+00	9.25145068e-02
9               	-2.53100396e+01	6.82548929e+00	9.82475645e-02
10              	-1.84287828e+01	6.41765983e+00	1.03410530e-01
11              	-1.24284479e+01	6.07181738e+00	1.05189566e-01
12              	-7.00923778e+00	5.80833896e+00	1.09124912e-01
13              	-5.72738039e+00	5.63555826e+00	1.05869776e-01
14              	-6.67080811e+00	5.53953208e+00	1.05859854e-01
15              	-7.61514924e+00	5.51235585e+00	1.10461854e-01
16              	-8.44872544e+00	5.54283470e+00	9.79232176e-02
17              	-9.27409956e+00	5.62408278e+00	9.47626908e-02
18              	-1.02128665e+01	5.74867371e+00	9.23941525e-02
19              	-1.06432447e+01	5.90183943e+00	9.85076496e-02
20              	-1.15502550e+01	6.05862587e+00	1.00621135e-01
21              	-1.21915822e+01	6.22873143e+00	9.10634482e-02
22              	-1.25052054e+01	6.40437574e+00	9.10304606e-02
23              	-1.34038718e+01	6.58218889e+00	8.07128922e-02
24              	-1.36656016e+01	6.75823767e+00	8.82498304e-02
25              	-1.46277927e+01	6.93463881e+00	8.32362802e-02
26              	-1.50335099e+01	7.09601593e+00	8.33203554e-02
27              	-1.54696240e+01	7.24645196e+00	7.97384036e-02
28              	-1.58369476e+01	7.33967947e+00	7.40251194e-02
29              	-1.61027346e+01	7.09566155e+00	7.29323165e-02
30              	-1.64905900e+01	7.14672298e+00	7.38355324e-02
31              	-1.67911594e+01	7.26921840e+00	7.10348270e-02
32              	-1.71264008e+01	6.95337669e+00	6.58626746e-02
33              	-1.73158012e+01	6.70073723e+00	6.36121281e-02
34              	-1.74961741e+01	6.63687791e+00	6.11384651e-02
35              	-1.76216074e+01	6.42440673e+00	5.88411805e-02
36              	-1.77936351e+01	6.37488688e+00	5.64786745e-02
37              	-1.79162844e+01	6.15320519e+00	5.20098414e-02
38              	-1.78567781e+01	5.87981725e+00	4.89688875e-02
39              	-1.79620846e+01	5.75735927e+00	4.80875999e-02
40              	-1.79079273e+01	5.77627238e+00	4.73621447e-02
41              	-1.77592031e+01	5.67180976e+00	4.55159956e-02
42              	-1.78606959e+01	5.43992480e+00	4.33444953e-02
43              	-1.77554182e+01	5.28457864e+00	4.26067454e-02
44              	-1.76491409e+01	5.22827710e+00	4.13353688e-02
45              	-1.74997192e+01	5.02833517e+00	3.84766501e-02
46              	-1.73909902e+01	4.70335787e+00	3.68316048e-02
47              	-1.72213006e+01	4.66393638e+00	3.65740158e-02
48              	-1.71224098e+01	4.58959367e+00	3.45410406e-02
49              	-1.69274284e+01	4.29093281e+00	3.23859499e-02
50              	-1.67327245e+01	4.17091893e+00	3.24677359e-02
51              	-1.66068789e+01	4.22145896e+00	3.29177813e-02
52              	-1.64049802e+01	4.21046149e+00	3.17586444e-02
53              	-1.62297678e+01	4.03084371e+00	3.00612887e-02
54              	-1.61597106e+01	3.89112696e+00	2.93741127e-02
55              	-1.59148303e+01	3.84908377e+00	2.92902753e-02
56              	-1.56913765e+01	3.83970488e+00	2.88868004e-02
57              	-1.54864417e+01	3.77516631e+00	2.83089426e-02
58              	-1.52920276e+01	3.72283299e+00	2.76539000e-02
59              	-1.50918295e+01	3.65042269e+00	2.63028554e-02
60              	-1.48815571e+01	3.47140792e+00	2.48309115e-02
61              	-1.46249846e+01	3.37029211e+00	2.46781734e-02
62              	-1.43909643e+01	3.39772233e+00	2.50264623e-02
63              	-1.42241529e+01	3.41850456e+00	2.46549083e-02
64              	-1.39807813e+01	3.34246104e+00	2.37483605e-02
65              	-1.37460339e+01	3.27584877e+00	2.33571041e-02
66              	-1.35221634e+01	3.26052128e+00	2.34381803e-02
67              	-1.33511558e+01	3.28163110e+00	2.35420840e-02
68              	-1.30853520e+01	3.29590579e+00	2.30828403e-02
69              	-1.28693565e+01	3.21388319e+00	2.19898535e-02
70              	-1.25701381e+01	3.12122908e+00	2.15287675e-02
71              	-1.23275407e+01	3.11352080e+00	2.17514528e-02
72              	-1.20252680e+01	3.14352903e+00	2.17994889e-02
73              	-1.18001111e+01	3.13852788e+00	2.10912377e-02
74              	-1.15484307e+01	3.02813852e+00	1.98454166e-02
75              	-1.12679332e+01	2.91886080e+00	1.94017468e-02
76              	-1.10196661e+01	2.91790571e+00	1.96951876e-02
77              	-1.07464182e+01	2.94985356e+00	1.98050278e-02
78              	-1.04656027e+01	2.95347466e+00	1.94413194e-02
79              	-1.01837817e+01	2.89713934e+00	1.86733112e-02
80              	-9.89418756e+00	2.82523819e+00	1.82814304e-02
81              	-9.60781384e+00	2.80957398e+00	1.81907077e-02
82              	-9.31917768e+00	2.80389652e+00	1.78700399e-02
83              	-9.03293245e+00	2.74461980e+00	1.71245871e-02
84              	-8.73134713e+00	2.66554343e+00	1.67151373e-02
85              	-8.41755421e+00	2.65872333e+00	1.68206454e-02
86              	-8.10902829e+00	2.66343237e+00	1.66841790e-02
87              	-8.10600938e+00	2.63964843e+00	1.64301440e-02
88              	-8.15567841e+00	2.62733976e+00	1.60479760e-02
89              	-8.18188425e+00	2.56017818e+00	1.52259806e-02
90              	-8.24892477e+00	2.46278895e+00	1.47137979e-02
91              	-8.31798207e+00	2.43972101e+00	1.48356695e-02
92              	-8.38720520e+00	2.45769738e+00	1.49451144e-02
93              	-8.46283447e+00	2.46041865e+00	1.48925179e-02
94              	-8.56513503e+00	2.45916262e+00	1.46278203e-02
95              	-8.59064727e+00	2.41173363e+00	1.40136237e-02
96              	-8.59681119e+00	2.33867687e+00	1.36002546e-02
97              	-8.60995071e+00	2.31453891e+00	1.35486323e-02
98              	-8.69066495e+00	2.30485634e+00	1.33808158e-02
99              	-8.70654309e+00	2.27736043e+00	1.31933898e-02
100             	-8.73622705e+00	2.26697477e+00	1.30690142e-02
101             	-8.70229301e+00	2.24393438e+00	1.27202699e-02
102             	-8.70636700e+00	2.19383020e+00	1.23740175e-02
103             	-8.70689857e+00	2.16428921e+00	1.22898327e-02
104             	-8.63739740e+00	2.15900296e+00	1.22701876e-02
105             	-8.65388070e+00	2.15457425e+00	1.22092981e-02
106             	-8.57266750e+00	2.14535652e+00	1.20948518e-02
107             	-8.58953909e+00	2.13143245e+00	1.19516380e-02
108             	-8.53684760e+00	2.11567334e+00	1.16367437e-02
109             	-8.47278395e+00	2.06196902e+00	1.10023586e-02
110             	-8.40129569e+00	1.97644496e+00	1.04569325e-02
111             	-8.32995124e+00	1.92225497e+00	1.02850922e-02
112             	-8.25621345e+00	1.90686977e+00	1.02541606e-02
113             	-8.24943881e+00	1.89945013e+00	1.02077751e-02
114             	-8.12203609e+00	1.89220536e+00	1.01412780e-02
115             	-8.02390377e+00	1.88424332e+00	1.00587111e-02
116             	-7.93028579e+00	1.87459317e+00	9.84537248e-03
117             	-7.82899279e+00	1.83589719e+00	9.36489428e-03
118             	-7.72015436e+00	1.76493293e+00	8.87327908e-03
119             	-7.59623928e+00	1.70772536e+00	8.62095899e-03
120             	-7.45537575e+00	1.67924486e+00	8.50083818e-03
121             	-7.29145549e+00	1.66014212e+00	8.38373417e-03
122             	-7.04668889e+00	1.64432286e+00	8.27441631e-03
123             	-6.93232180e+00	1.62772192e+00	8.10731524e-03
124             	-6.74354772e+00	1.60015691e+00	7.89212315e-03
125             	-6.57927220e+00	1.57215568e+00	7.72314101e-03
126             	-6.41530415e+00	1.54952406e+00	7.55844106e-03
127             	-6.24853227e+00	1.52331820e+00	7.37690432e-03
128             	-6.08270266e+00	1.49871625e+00	7.23446047e-03
129             	-5.92555317e+00	1.47867504e+00	7.08941446e-03
130             	-5.77831910e+00	1.45506496e+00	6.92695538e-03
131             	-5.64408802e+00	1.43250600e+00	6.79469876e-03
132             	-5.51691360e+00	1.41314021e+00	6.65689824e-03
133             	-5.39798373e+00	1.39062373e+00	6.50554391e-03
134             	-5.28454278e+00	1.36899340e+00	6.37212310e-03
135             	-5.21418675e+00	1.34809817e+00	6.21659602e-03
136             	-5.07568219e+00	1.32208782e+00	6.04324892e-03
137             	-5.00441018e+00	1.29629404e+00	5.89561210e-03
138             	-4.93655198e+00	1.27333307e+00	5.75393947e-03
139             	-4.86299349e+00	1.24988923e+00	5.61684759e-03
140             	-4.79462914e+00	1.22923925e+00	5.50180893e-03
141             	-4.73853166e+00	1.21035894e+00	5.37279789e-03
142             	-4.71755500e+00	1.18756005e+00	5.22776527e-03
143             	-4.66266184e+00	1.16464977e+00	5.09674534e-03
144             	-4.66985843e+00	1.14317592e+00	4.96462395e-03
145             	-4.61293577e+00	1.12017218e+00	4.83132665e-03
146             	-4.64721436e+00	1.09828110e+00	4.71117290e-03
147             	-4.61775242e+00	1.07800146e+00	4.59714032e-03
148             	-4.61727559e+00	1.05795731e+00	4.48522224e-03
149             	-4.67707900e+00	1.03898316e+00	4.38416868e-03
150             	-4.64274307e+00	1.02230029e+00	4.29369779e-03
151             	-4.70382057e+00	1.00546980e+00	4.17710892e-03
152             	-4.71473790e+00	9.83025950e-01	4.03673924e-03
153             	-4.76668365e+00	9.58645593e-01	3.90295259e-03
154             	-4.77860006e+00	9.34390847e-01	3.77095568e-03
155             	-4.85814157e+00	9.09345121e-01	3.64920585e-03
156             	-4.85300816e+00	8.87820389e-01	3.55062815e-03
157             	-4.95718624e+00	8.69433840e-01	3.45676284e-03
158             	-5.02230938e+00	8.51230923e-01	3.36781605e-03
159             	-5.05128125e+00	8.35110944e-01	3.28819700e-03
160             	-5.16820407e+00	8.19566601e-01	3.20491813e-03
161             	-5.24366845e+00	8.03201301e-01	3.12500203e-03
162             	-5.32856890e+00	7.88516679e-01	3.05428748e-03
163             	-5.41098731e+00	7.74338043e-01	2.97869740e-03
164             	-5.51377690e+00	7.58947085e-01	2.90461479e-03
165             	-5.62332414e+00	7.44983238e-01	2.83754894e-03
166             	-5.73133268e+00	7.31038338e-01	2.76327064e-03
167             	-5.81561761e+00	7.15259759e-01	2.68785707e-03
168             	-5.96235332e+00	7.00247144e-01	2.61541651e-03
169             	-6.02050604e+00	6.85247013e-01	2.54604653e-03
170             	-6.11659709e+00	6.71101222e-01	2.48139195e-03
171             	-6.29982842e+00	6.57511497e-01	2.41742123e-03
172             	-6.36805901e+00	6.44095330e-01	2.35884308e-03
173             	-6.50397178e+00	6.32199672e-01	2.30458965e-03
174             	-6.60546659e+00	6.20545956e-01	2.25310828e-03
175             	-6.69880301e+00	6.09564581e-01	2.20293294e-03
176             	-6.78742991e+00	5.98657410e-01	2.15538319e-03
177             	-6.87100769e+00	5.88683866e-01	2.11275426e-03
178             	-6.92821096e+00	5.79276817e-01	2.06613549e-03
179             	-7.01356526e+00	5.68524117e-01	2.01872704e-03
180             	-7.04741648e+00	5.58571772e-01	1.97535674e-03
181             	-7.09958178e+00	5.48742834e-01	1.92771484e-03
182             	-7.11044618e+00	5.37569980e-01	1.88090862e-03
183             	-7.12745440e+00	5.27395916e-01	1.83585020e-03
184             	-7.13989813e+00	5.16912932e-01	1.79169237e-03
185             	-7.12472016e+00	5.07045950e-01	1.75307112e-03
186             	-7.10538411e+00	4.98253751e-01	1.71303730e-03
187             	-7.07747704e+00	4.88590180e-01	1.67410470e-03
188             	-7.03846174e+00	4.79769338e-01	1.63955702e-03
189             	-6.95647827e+00	4.69868573e-01	1.60196855e-03
190             	-6.92339822e+00	4.59096371e-01	1.56467475e-03
191             	-6.88023392e+00	4.48408615e-01	1.53063329e-03
192             	-6.82842932e+00	4.38652924e-01	1.49974094e-03
193             	-6.77359999e+00	4.29799712e-01	1.46954060e-03
194             	-6.71914401e+00	4.21144819e-01	1.44074748e-03
195             	-6.68039089e+00	4.12893211e-01	1.41461648e-03
196             	-6.62544107e+00	4.05404520e-01	1.39159050e-03
197             	-6.54593339e+00	3.98805675e-01	1.36742207e-03
198             	-6.51919043e+00	3.91879421e-01	1.34296197e-03
199             	-6.46283483e+00	3.84869582e-01	1.32158941e-03
200             	-6.43752821e+00	3.78744577e-01	1.30061721e-03
201             	-6.38460973e+00	3.72734309e-01	1.27953550e-03
202             	-6.35965342e+00	3.66692656e-01	1.26080194e-03
203             	-6.31304017e+00	3.61323943e-01	1.24428937e-03
204             	-6.28935958e+00	3.56591727e-01	1.22692608e-03
205             	-6.25131155e+00	3.51615711e-01	1.21108597e-03
206             	-6.22865481e+00	3.47076209e-01	1.19618572e-03
207             	-6.19593376e+00	3.42806056e-01	1.18085971e-03
208             	-6.18171970e+00	3.38413888e-01	1.16709421e-03
209             	-6.16678998e+00	3.34468935e-01	1.15217428e-03
210             	-6.16248954e+00	3.30193142e-01	1.13739313e-03
211             	-6.13374528e+00	3.25957122e-01	1.12504899e-03
212             	-6.12899091e+00	3.22419505e-01	1.11230412e-03
213             	-6.12327897e+00	3.18767047e-01	1.09855695e-03
214             	-6.12337660e+00	3.14827346e-01	1.08581571e-03
215             	-6.12265291e+00	3.11175927e-01	1.07530695e-03
216             	-6.12403953e+00	3.08164300e-01	1.06344765e-03
217             	-6.12423939e+00	3.04765632e-01	1.05198448e-03
218             	-6.13491943e+00	3.01480484e-01	1.04178001e-03
219             	-6.13892543e+00	2.98556062e-01	1.03119618e-03
220             	-6.15679163e+00	2.95522920e-01	1.02021111e-03
221             	-6.16108458e+00	2.92374790e-01	1.01017863e-03
222             	-6.18191133e+00	2.89499655e-01	1.00222506e-03
223             	-6.20181376e+00	2.87220301e-01	9.93379036e-04
224             	-6.21696344e+00	2.84685183e-01	9.84903402e-04
225             	-6.22572195e+00	2.82256213e-01	9.78065774e-04
226             	-6.24762173e+00	2.80296668e-01	9.69659291e-04
227             	-6.26814076e+00	2.77887516e-01	9.60940636e-04
228             	-6.28789580e+00	2.75388901e-01	9.53994164e-04
229             	-6.30687194e+00	2.73398162e-01	9.46023769e-04
230             	-6.32448915e+00	2.71113986e-01	9.37975851e-04
231             	-6.34397061e+00	2.68807592e-01	9.31828704e-04
232             	-6.36240389e+00	2.67045926e-01	9.24739464e-04
233             	-6.38117977e+00	2.65014273e-01	9.17253623e-04
234             	-6.40186610e+00	2.62868961e-01	9.11374580e-04
235             	-6.42123666e+00	2.61184130e-01	9.04722668e-04
236             	-6.43584216e+00	2.59277807e-01	8.98343030e-04
237             	-6.44838737e+00	2.57449514e-01	8.92798999e-04
238             	-6.45684819e+00	2.55860691e-01	8.87082143e-04
239             	-6.47486805e+00	2.54222339e-01	8.81095872e-04
240             	-6.48128416e+00	2.52506778e-01	8.75998030e-04
241             	-6.48882590e+00	2.51045825e-01	8.71598799e-04
242             	-6.49914588e+00	2.49785081e-01	8.67199708e-04
243             	-6.50252299e+00	2.48524378e-01	8.62708428e-04
244             	-6.50289265e+00	2.47237255e-01	8.58497001e-04
245             	-6.50431616e+00	2.46030334e-01	8.55207623e-04
246             	-6.51093358e+00	2.45087655e-01	8.50549466e-04
247             	-6.51121424e+00	2.43752708e-01	8.45959033e-04
248             	-6.50842060e+00	2.42437170e-01	8.42715060e-04
249             	-6.50578286e+00	2.41507503e-01	8.38030901e-04
250             	-6.50239597e+00	2.40165105e-01	8.32881240e-04
251             	-6.49751961e+00	2.38689301e-01	8.28957671e-04
252             	-6.48701121e+00	2.37564874e-01	8.24229847e-04
253             	-6.48449965e+00	2.36209962e-01	8.19411019e-04
254             	-6.47900021e+00	2.34828970e-01	8.15946812e-04
255             	-6.46702474e+00	2.33836188e-01	8.11833753e-04
256             	-6.46278311e+00	2.32657457e-01	8.07751859e-04
257             	-6.45075497e+00	2.31487657e-01	8.04913979e-04
258             	-6.44633050e+00	2.30674370e-01	8.01355100e-04
259             	-6.43874632e+00	2.29654457e-01	7.97907121e-04
260             	-6.42592279e+00	2.28666326e-01	7.95853163e-04
261             	-6.41636056e+00	2.28077697e-01	7.92781383e-04
262             	-6.40879197e+00	2.27197379e-01	7.89794766e-04
